BEGIN_CFG
Size
9
Supercell
14.750000 0.000000 0.000000
0.000000 14.250000 0.000000
0.000000 0.000000 13.750000
AtomData: id type cartes_x cartes_y cartes_z fx fy fz
1 0 7.838778 6.713911 7.629444 -1.281421 0.840850 -1.562846
2 0 7.656778 6.980811 6.125744 -0.245579 -1.143382 -0.082620
3 0 6.696278 7.612011 7.059444 1.474237 1.210157 0.012368
4 1 7.505778 5.724711 7.942444 0.161824 0.036184 0.161571
5 1 8.668778 7.168011 8.163444 -0.015688 0.036328 0.061598
6 1 7.246278 6.206511 5.470244 0.294734 -0.254498 0.207525
7 1 8.214778 7.707011 5.581344 1.078633 0.296324 -0.272467
8 1 5.690178 7.301011 6.947444 -1.086800 -0.431744 0.516801
9 1 6.857378 8.711011 6.955445 -0.380945 -0.591161 0.955385
Energy
-48.023513290000
PlusStress: xx yy zz yz xz xy
-0.000165 0.000331 0.000494 -0.000587 0.000790 -0.000216
Feature EFS_by vasp
Feature from database:p.cfg
Feature mindist 2.70
END_CFG

