
0.000000000 14.750000000 xlo xhi
0.000000000 14.250000000 ylo yhi
0.000000000 13.750000000 zlo zhi
0.000000000 0.000000000 0.000000000 xy xz yz

9 atoms

2 atom types

Atoms

     1     1          7.83877800          6.71391100          7.62944400
     2     1          7.65677800          6.98081100          6.12574400
     3     1          6.69627800          7.61201100          7.05944400
     4     2          7.50577800          5.72471100          7.94244400
     5     2          8.66877800          7.16801100          8.16344400
     6     2          7.24627800          6.20651100          5.47024400
     7     2          8.21477800          7.70701100          5.58134400
     8     2          5.69017800          7.30101100          6.94744400
     9     2          6.85737800          8.71101100          6.95544500
