BEGIN_CFG
Size
9
Supercell
14.750000 0.000000 0.000000
0.000000 14.250000 0.000000
0.000000 0.000000 13.750000
AtomData: id type cartes_x cartes_y cartes_z fx fy fz
1 0 7.838778 6.713911 7.629444 -1.281421 0.840850 -1.562846
2 0 7.656778 6.980811 6.125744 -0.245579 -1.143382 -0.082620
3 0 6.696278 7.612011 7.059444 1.474237 1.210157 0.012368
4 1 7.505778 5.724711 7.942444 0.161824 0.036184 0.161571
5 1 8.668778 7.168011 8.163444 -0.015688 0.036328 0.061598
6 1 7.246278 6.206511 5.470244 0.294734 -0.254498 0.207525
7 1 8.214778 7.707011 5.581344 1.078633 0.296324 -0.272467
8 1 5.690178 7.301011 6.947444 -1.086800 -0.431744 0.516801
9 1 6.857378 8.711011 6.955445 -0.380945 -0.591161 0.955385
Energy
-48.023513290000
PlusStress: xx yy zz yz xz xy
-0.000165 0.000331 0.000494 -0.000587 0.000790 -0.000216
Feature EFS_by vasp
Feature from database:p.cfg
Feature mindist 2.70
END_CFG

BEGIN_CFG
Size
9
Supercell
14.750000 0.000000 0.000000
0.000000 14.250000 0.000000
0.000000 0.000000 13.750000
AtomData: id type cartes_x cartes_y cartes_z fx fy fz
1 0 7.859520 6.853508 7.643285 0.573303 -0.177399 -1.107167
2 0 7.505621 6.776012 6.099907 0.797742 -1.014160 0.597151
3 0 6.805253 7.698103 7.011888 -1.568994 0.727006 1.461224
4 1 7.509477 5.987219 8.195188 0.096436 -0.056469 0.253518
5 1 8.816031 7.303917 7.979294 -0.509187 -0.300639 -0.309373
6 1 7.054344 5.812880 5.777562 0.088651 0.681898 0.168581
7 1 8.267602 7.160738 5.405462 -0.353104 0.047844 0.186020
8 1 5.773430 7.539095 7.445379 0.785534 -0.069235 -0.960908
9 1 7.019799 8.763509 6.972776 0.085218 0.161066 -0.289394
Energy
-48.200384720000
PlusStress: xx yy zz yz xz xy
0.000608 0.000172 0.000993 0.000174 -0.000012 0.000409
Feature EFS_by vasp
Feature from database:p.cfg
Feature mindist 2.70
END_CFG

BEGIN_CFG
Size
9
Supercell
14.750000 0.000000 0.000000
0.000000 14.250000 0.000000
0.000000 0.000000 13.750000
AtomData: id type cartes_x cartes_y cartes_z fx fy fz
1 0 7.907248 6.931053 7.560587 0.164484 -0.018686 0.428622
2 0 7.421787 6.534385 6.207079 -0.370036 2.517593 0.560615
3 0 6.872735 7.852664 7.012607 -0.569198 -2.272809 -0.677539
4 1 7.482611 6.340777 8.378658 0.270249 -0.154127 -0.008756
5 1 8.944412 7.202692 7.740399 0.145839 0.243302 -0.076421
6 1 6.828685 5.661648 6.077932 -0.695589 -0.632781 -0.044283
7 1 7.936828 6.899480 5.317762 0.339483 -0.325470 0.100473
8 1 5.875706 7.796366 7.442899 -0.102702 -0.241913 0.157036
9 1 6.995571 8.780748 6.515412 0.819683 0.891369 -0.434863
Energy
-48.051147470000
PlusStress: xx yy zz yz xz xy
-0.000106 0.000493 0.000289 0.000521 -0.000169 -0.000626
Feature EFS_by vasp
Feature from database:p.cfg
Feature mindist 2.70
END_CFG

BEGIN_CFG
Size
9
Supercell
14.750000 0.000000 0.000000
0.000000 14.250000 0.000000
0.000000 0.000000 13.750000
AtomData: id type cartes_x cartes_y cartes_z fx fy fz
1 0 7.995925 6.983993 7.519345 -0.002939 0.376562 1.593552
2 0 7.234209 6.466211 6.388811 -0.661247 -0.614478 -0.812832
3 0 6.929725 7.866177 6.857177 1.582976 1.180833 -0.685468
4 1 7.713527 6.585157 8.513640 0.186430 0.265884 -0.371004
5 1 9.063073 7.149883 7.415853 0.140505 0.286816 -0.073303
6 1 6.562230 5.617063 6.567705 -0.053039 0.277637 -0.206450
7 1 7.829705 6.411321 5.475341 -0.364571 -0.118011 -0.228056
8 1 6.116422 8.209860 7.478335 -0.583921 -0.497404 0.121746
9 1 7.282246 8.729104 6.201638 -0.246479 -1.159413 0.661248
Energy
-48.198902330000
PlusStress: xx yy zz yz xz xy
0.000134 0.000804 -0.000047 -0.000576 -0.000346 -0.000290
Feature EFS_by vasp
Feature from database:p.cfg
Feature mindist 2.70
END_CFG

BEGIN_CFG
Size
9
Supercell
14.750000 0.000000 0.000000
0.000000 14.250000 0.000000
0.000000 0.000000 13.750000
AtomData: id type cartes_x cartes_y cartes_z fx fy fz
1 0 8.081946 7.073139 7.522838 -0.095982 -0.769810 -1.337934
2 0 7.066647 6.397978 6.525012 -0.376982 -0.730910 0.719825
3 0 7.048616 7.843877 6.749229 -0.350301 1.276950 0.018628
4 1 7.908749 6.953167 8.588500 -0.174269 -0.074067 0.072991
5 1 9.161068 7.039221 7.248866 -0.757923 0.210705 0.010576
6 1 6.170666 5.799282 6.814898 0.902816 0.171805 0.155235
7 1 7.421049 6.210739 5.514920 0.279980 -0.612084 0.058620
8 1 6.236654 8.334939 7.270460 -0.245046 -0.121598 0.523161
9 1 7.220424 8.381706 5.833559 0.821072 0.648894 -0.222097
Energy
-48.062546150000
PlusStress: xx yy zz yz xz xy
0.001009 -0.000619 0.000460 0.000124 0.000647 0.000208
Feature EFS_by vasp
Feature from database:p.cfg
Feature mindist 2.70
END_CFG

BEGIN_CFG
Size
9
Supercell
14.750000 0.000000 0.000000
0.000000 14.250000 0.000000
0.000000 0.000000 13.750000
AtomData: id type cartes_x cartes_y cartes_z fx fy fz
1 0 8.117088 7.114058 7.420547 -0.258838 -1.192225 -0.062470
2 0 6.902474 6.367912 6.728061 2.089407 0.495275 0.215033
3 0 7.144408 7.836293 6.608911 -1.519536 1.574734 0.611214
4 1 8.031062 7.290557 8.476398 0.044764 -0.165505 0.624787
5 1 9.125548 6.918098 7.081061 0.187107 -0.054828 -0.251610
6 1 6.205704 5.922889 7.393581 -0.925383 -0.073010 0.555565
7 1 7.197502 5.722060 5.906340 -0.022956 0.035436 -0.223009
8 1 6.503171 8.546653 7.203400 0.298376 -0.692350 -0.659924
9 1 7.454849 8.279537 5.685584 0.106622 0.070478 -0.811376
Energy
-48.190063710000
PlusStress: xx yy zz yz xz xy
0.000128 0.000282 -0.000438 0.000623 0.000148 0.000354
Feature EFS_by vasp
Feature from database:p.cfg
Feature mindist 2.70
END_CFG

BEGIN_CFG
Size
9
Supercell
14.750000 0.000000 0.000000
0.000000 14.250000 0.000000
0.000000 0.000000 13.750000
AtomData: id type cartes_x cartes_y cartes_z fx fy fz
1 0 8.123302 7.059137 7.340354 0.793518 1.356292 1.020659
2 0 6.891827 6.376209 6.999019 -1.846557 0.592663 -1.803622
3 0 7.182582 7.883214 6.434686 0.471967 -2.532755 0.366034
4 1 8.188353 7.464504 8.392027 0.202961 -0.449407 -0.972720
5 1 9.071580 6.672158 6.949669 -0.131332 0.129718 0.034648
6 1 6.000276 6.362082 7.657511 0.689860 -0.208965 -0.074647
7 1 6.874198 5.591663 6.202476 0.145534 0.513977 0.687948
8 1 6.612449 8.595088 7.011418 -0.180072 0.549633 -0.368934
9 1 7.365722 7.990722 5.334599 -0.138906 0.049324 1.105935
Energy
-48.041806810000
PlusStress: xx yy zz yz xz xy
0.000081 0.001095 0.001497 -0.000236 -0.000293 -0.000236
Feature EFS_by vasp
Feature from database:p.cfg
Feature mindist 2.70
END_CFG

BEGIN_CFG
Size
9
Supercell
14.750000 0.000000 0.000000
0.000000 14.250000 0.000000
0.000000 0.000000 13.750000
AtomData: id type cartes_x cartes_y cartes_z fx fy fz
1 0 8.196005 7.059193 7.290383 -0.632966 0.250070 -0.911783
2 0 6.784995 6.553000 7.152005 0.251304 0.239200 1.299352
3 0 7.174957 7.731324 6.317140 1.398423 -1.928886 0.386900
4 1 8.491055 7.606357 8.168920 0.146912 0.218163 0.334505
5 1 8.926450 6.380667 6.855514 0.315213 0.256726 -0.000626
6 1 6.153789 6.627603 8.040732 -0.223353 0.253140 -0.229531
7 1 6.814602 5.571192 6.747289 -0.548142 -0.823247 -0.748109
8 1 6.857229 8.687200 6.640683 -0.479718 1.035494 -0.054146
9 1 7.370948 7.503447 5.269106 -0.232032 0.498494 -0.073250
Energy
-48.189492240000
PlusStress: xx yy zz yz xz xy
0.000067 -0.000292 0.000192 -0.000306 0.000175 -0.000245
Feature EFS_by vasp
Feature from database:p.cfg
Feature mindist 2.70
END_CFG

BEGIN_CFG
Size
9
Supercell
14.750000 0.000000 0.000000
0.000000 14.250000 0.000000
0.000000 0.000000 13.750000
AtomData: id type cartes_x cartes_y cartes_z fx fy fz
1 0 8.249197 7.077112 7.219874 -1.233068 -1.542396 -0.752245
2 0 6.742198 6.688395 7.334122 -0.090009 -0.799065 -0.246757
3 0 7.208815 7.560527 6.241851 -0.113750 2.208975 0.184230
4 1 8.797074 7.731651 7.876960 -0.112866 0.246329 0.419712
5 1 8.811973 6.212100 6.816137 0.065151 0.541441 0.376397
6 1 6.002905 7.152215 7.975177 0.258173 0.126269 0.667237
7 1 6.389197 5.696628 6.986382 0.585228 0.163539 0.527456
8 1 6.833358 8.623287 6.391873 0.700623 -1.051243 -0.647350
9 1 7.248056 7.170568 5.239483 -0.055422 0.107797 -0.531669
Energy
-48.079378550000
PlusStress: xx yy zz yz xz xy
0.001069 0.000488 -0.000411 0.000546 0.000144 -0.000042
Feature EFS_by vasp
Feature from database:p.cfg
Feature mindist 2.70
END_CFG

BEGIN_CFG
Size
9
Supercell
14.750000 0.000000 0.000000
0.000000 14.250000 0.000000
0.000000 0.000000 13.750000
AtomData: id type cartes_x cartes_y cartes_z fx fy fz
1 0 8.226373 7.030822 7.124291 0.886657 0.001847 1.825365
2 0 6.715177 6.878166 7.472779 1.012622 -0.631378 0.695571
3 0 7.219184 7.404630 6.155024 -1.084348 0.981111 -0.992588
4 1 8.826469 7.785909 7.678590 -0.438766 -0.267490 -0.424454
5 1 8.796311 6.114150 6.967093 -0.142714 -0.119242 -0.037382
6 1 6.329396 7.604937 8.194400 0.011118 0.063130 -0.236571
7 1 6.399110 5.848529 7.745738 -0.009332 0.493926 -0.821497
8 1 7.042067 8.480824 6.032568 -0.000129 -0.107594 -0.045850
9 1 7.163348 6.901221 5.193138 -0.231631 -0.419002 0.037436
Energy
-48.180210660000
PlusStress: xx yy zz yz xz xy
0.000434 0.000327 0.000171 -0.000002 -0.000571 0.000250
Feature EFS_by vasp
Feature from database:p.cfg
Feature mindist 2.70
END_CFG

BEGIN_CFG
Size
9
Supercell
14.750000 0.000000 0.000000
0.000000 14.250000 0.000000
0.000000 0.000000 13.750000
AtomData: id type cartes_x cartes_y cartes_z fx fy fz
1 0 8.222222 6.967697 7.141838 0.270421 0.814096 -0.812107
2 0 6.827192 7.069196 7.578761 -0.661895 1.415953 -1.459368
3 0 7.136377 7.274547 6.067514 0.589641 -1.793165 0.635725
4 1 8.985401 7.691205 7.439207 -0.249231 0.329527 -0.073012
5 1 8.667923 5.989926 7.110065 -0.015598 -0.677726 -0.164673
6 1 6.428578 8.003063 7.958861 0.339409 0.354583 0.460601
7 1 6.250339 6.277180 7.954679 -0.551983 -1.557887 0.282808
8 1 6.963512 8.252369 5.683110 0.226517 1.080781 0.042501
9 1 6.959991 6.547984 5.232992 0.050594 0.039107 1.093146
Energy
-48.072789960000
PlusStress: xx yy zz yz xz xy
0.000174 -0.000897 0.001249 -0.000016 0.000555 -0.000326
Feature EFS_by vasp
Feature from database:p.cfg
Feature mindist 2.70
END_CFG

BEGIN_CFG
Size
9
Supercell
14.750000 0.000000 0.000000
0.000000 14.250000 0.000000
0.000000 0.000000 13.750000
AtomData: id type cartes_x cartes_y cartes_z fx fy fz
1 0 8.250746 6.927286 7.099807 -0.590009 -1.027846 -0.446227
2 0 6.843821 7.309538 7.549942 0.194113 0.306342 2.157846
3 0 7.082028 7.098243 6.120054 0.141573 -0.220055 -1.113187
4 1 9.123436 7.582921 7.123345 -0.280779 0.174566 0.027746
5 1 8.475072 5.842592 7.268769 0.092534 0.916125 -0.095773
6 1 6.725248 8.348853 7.931735 -0.034023 -0.555761 -0.399187
7 1 6.346673 6.569625 8.224975 0.116872 0.457553 -0.743106
8 1 6.956709 7.946584 5.429729 0.443074 0.015339 0.363374
9 1 6.739054 6.187381 5.620280 -0.083622 -0.067956 0.250373
Energy
-48.226666050000
PlusStress: xx yy zz yz xz xy
0.000692 0.000807 0.000269 -0.000220 0.000195 -0.000083
Feature EFS_by vasp
Feature from database:p.cfg
Feature mindist 2.70
END_CFG

BEGIN_CFG
Size
9
Supercell
14.750000 0.000000 0.000000
0.000000 14.250000 0.000000
0.000000 0.000000 13.750000
AtomData: id type cartes_x cartes_y cartes_z fx fy fz
1 0 8.232373 6.860398 7.000354 -0.018212 0.394373 2.375022
2 0 6.922300 7.543759 7.587904 0.417601 -2.231885 -1.354182
3 0 7.041185 6.921133 6.194836 -0.796700 1.617997 -1.748918
4 1 9.078420 7.551697 6.926129 -0.033554 -0.378437 -0.297799
5 1 8.390281 5.860805 7.424319 0.544021 0.352665 0.085197
6 1 6.829123 8.597752 7.511745 0.078691 1.001243 0.462225
7 1 6.254386 6.973284 8.248984 0.431505 0.408052 0.130544
8 1 7.022974 7.623743 5.324954 -0.101980 -0.518453 0.557718
9 1 6.559638 5.988099 6.003051 -0.516823 -0.645838 -0.205604
Energy
-48.070267160000
PlusStress: xx yy zz yz xz xy
0.000081 0.000268 0.000127 -0.000025 -0.000832 -0.000085
Feature EFS_by vasp
Feature from database:p.cfg
Feature mindist 2.70
END_CFG

BEGIN_CFG
Size
9
Supercell
14.750000 0.000000 0.000000
0.000000 14.250000 0.000000
0.000000 0.000000 13.750000
AtomData: id type cartes_x cartes_y cartes_z fx fy fz
1 0 8.195212 6.845491 7.062186 -0.197075 0.294552 -1.109000
2 0 7.034478 7.703027 7.474232 0.879514 -0.352515 -0.996948
3 0 6.930737 6.765685 6.242949 -0.382028 0.279021 1.276112
4 1 8.949550 7.440715 6.548880 0.592436 -0.491496 0.275574
5 1 8.453693 5.976426 7.629379 0.483174 -0.419484 0.370017
6 1 7.330991 8.739460 7.267132 -0.917322 0.002185 0.319988
7 1 6.592469 7.421726 8.407765 -0.622153 0.181201 0.453241
8 1 6.933204 7.293318 5.303581 -0.138060 -0.095573 -0.502271
9 1 6.300483 5.856904 6.327214 0.296834 0.598874 -0.086343
Energy
-48.153872710000
PlusStress: xx yy zz yz xz xy
-0.000249 0.000506 0.000165 0.000142 0.000126 0.000595
Feature EFS_by vasp
Feature from database:p.cfg
Feature mindist 2.70
END_CFG

BEGIN_CFG
Size
9
Supercell
14.750000 0.000000 0.000000
0.000000 14.250000 0.000000
0.000000 0.000000 13.750000
AtomData: id type cartes_x cartes_y cartes_z fx fy fz
1 0 8.214716 6.802031 7.058992 0.042344 -0.381436 -0.117265
2 0 7.175899 7.819112 7.345108 -1.587514 1.499971 -1.092573
3 0 6.800509 6.696486 6.374002 1.143822 -0.706962 1.908047
4 1 9.016311 7.190224 6.392147 -0.300142 -0.517429 0.489819
5 1 8.538701 6.088356 7.878298 -0.405731 0.684652 -1.070595
6 1 7.235217 8.850834 6.853021 0.163227 -1.247465 0.860891
7 1 6.514533 7.793581 8.227711 0.698624 0.139068 0.027983
8 1 6.735641 6.843165 5.311067 -0.045784 0.115940 -0.411880
9 1 6.151271 5.921247 6.836911 0.291435 0.414655 -0.592862
Energy
-48.128815840000
PlusStress: xx yy zz yz xz xy
0.001012 0.000877 0.000963 -0.000660 0.000209 0.000275
Feature EFS_by vasp
Feature from database:p.cfg
Feature mindist 2.70
END_CFG

BEGIN_CFG
Size
9
Supercell
14.750000 0.000000 0.000000
0.000000 14.250000 0.000000
0.000000 0.000000 13.750000
AtomData: id type cartes_x cartes_y cartes_z fx fy fz
1 0 8.195151 6.750801 7.044106 -0.844992 0.129785 0.477563
2 0 7.213406 7.931899 7.143145 0.896666 -0.590100 1.237583
3 0 6.758921 6.644766 6.570161 0.202865 -0.373181 -0.802998
4 1 9.004367 6.772696 6.346647 0.307849 0.290837 -0.879629
5 1 8.509417 6.177671 7.912837 -0.288197 0.129355 0.411367
6 1 7.421230 8.806307 6.594291 0.252396 0.927554 -1.143224
7 1 6.887562 8.203171 8.152422 -0.167735 -0.243097 -0.053220
8 1 6.553839 6.469049 5.490378 0.067634 0.379981 0.666359
9 1 6.099294 6.140355 7.251077 -0.428305 -0.647118 0.087272
Energy
-48.227244380000
PlusStress: xx yy zz yz xz xy
0.000321 -0.000136 -0.000072 0.000475 0.000334 -0.000599
Feature EFS_by vasp
Feature from database:p.cfg
Feature mindist 2.70
END_CFG

BEGIN_CFG
Size
9
Supercell
14.750000 0.000000 0.000000
0.000000 14.250000 0.000000
0.000000 0.000000 13.750000
AtomData: id type cartes_x cartes_y cartes_z fx fy fz
1 0 8.120797 6.718928 7.050405 2.312358 0.341472 -0.486820
2 0 7.354298 8.013407 6.958782 -1.030766 -0.133250 -0.166147
3 0 6.699072 6.583635 6.782031 -0.561437 0.792650 -0.869337
4 1 8.782039 6.509727 6.177206 -0.499450 0.328341 0.199833
5 1 8.710148 6.380589 7.894712 -0.480091 -0.007887 0.823937
6 1 7.531397 8.759322 6.150473 -0.146459 -0.971777 0.008522
7 1 6.906620 8.567652 7.802836 0.652269 -0.557195 0.228981
8 1 6.466404 6.237109 5.770486 -0.238571 0.094115 0.111153
9 1 5.998747 6.252938 7.545897 -0.005310 0.116675 0.146369
Energy
-48.033891960000
PlusStress: xx yy zz yz xz xy
0.000003 0.001445 -0.000063 0.000035 -0.000411 -0.000009
Feature EFS_by vasp
Feature from database:p.cfg
Feature mindist 2.70
END_CFG

BEGIN_CFG
Size
9
Supercell
14.750000 0.000000 0.000000
0.000000 14.250000 0.000000
0.000000 0.000000 13.750000
AtomData: id type cartes_x cartes_y cartes_z fx fy fz
1 0 8.171870 6.742300 7.054975 0.093838 -1.989219 -0.020146
2 0 7.379503 7.925909 6.757467 0.137089 1.514750 -1.083972
3 0 6.615498 6.656065 6.965057 0.647796 0.303644 1.186237
4 1 8.646987 6.279027 6.172119 0.018112 0.064920 0.449097
5 1 8.706442 6.535668 8.003645 -0.398907 0.364370 -0.394695
6 1 7.542688 8.409150 5.767097 -0.407669 -0.441645 0.431035
7 1 7.340681 8.666430 7.530932 -0.302023 0.499366 0.561356
8 1 6.232274 6.106882 6.126209 -0.321722 -0.168739 -0.414387
9 1 6.013922 6.610429 7.906382 0.529526 -0.143291 -0.720530
Energy
-48.217508460000
PlusStress: xx yy zz yz xz xy
0.000712 -0.000457 0.000599 -0.000225 -0.000216 0.000329
Feature EFS_by vasp
Feature from database:p.cfg
Feature mindist 2.70
END_CFG

BEGIN_CFG
Size
9
Supercell
14.750000 0.000000 0.000000
0.000000 14.250000 0.000000
0.000000 0.000000 13.750000
AtomData: id type cartes_x cartes_y cartes_z fx fy fz
1 0 8.170773 6.633769 7.062327 -1.687581 2.250167 0.505935
2 0 7.397589 7.889734 6.563828 0.049413 0.279384 0.512958
3 0 6.636438 6.774954 7.140050 -0.052105 -0.843545 1.029879
4 1 8.529975 6.014231 6.278520 0.548050 -0.663461 -0.476762
5 1 8.784037 6.858555 7.943949 -0.085092 -0.550237 -0.214012
6 1 7.209198 8.080757 5.533657 0.411504 0.268924 -1.010284
7 1 7.326250 8.776918 7.228094 0.551809 -0.318583 -0.572386
8 1 5.989615 6.089180 6.581510 0.279272 0.187094 -0.204090
9 1 6.188354 7.098041 8.076307 -0.021838 -0.608292 0.431225
Energy
-48.077594770000
PlusStress: xx yy zz yz xz xy
0.000684 0.000297 -0.000449 0.000457 0.000425 -0.000459
Feature EFS_by vasp
Feature from database:p.cfg
Feature mindist 2.70
END_CFG

BEGIN_CFG
Size
9
Supercell
14.750000 0.000000 0.000000
0.000000 14.250000 0.000000
0.000000 0.000000 13.750000
AtomData: id type cartes_x cartes_y cartes_z fx fy fz
1 0 8.113701 6.635050 7.062005 -0.191783 0.327263 -0.500900
2 0 7.370012 7.817667 6.361235 1.098925 -0.428154 1.073408
3 0 6.693318 6.878262 7.336138 -1.456340 -0.078788 -0.330843
4 1 8.276123 5.704710 6.504477 0.691413 0.392503 0.121234
5 1 8.724248 6.967866 7.894599 0.683375 -0.485068 -0.148425
6 1 7.248612 7.679187 5.290921 -0.315691 0.216721 -0.047575
7 1 7.708582 8.819131 6.731081 -0.488307 -0.744651 -0.497846
8 1 5.944052 6.157231 6.967853 0.271526 0.282247 -0.081167
9 1 6.459352 7.198932 8.335108 -0.289267 0.521217 0.409868
Energy
-48.158025230000
PlusStress: xx yy zz yz xz xy
-0.000498 0.001035 0.000326 -0.000064 0.000227 0.000395
Feature EFS_by vasp
Feature from database:p.cfg
Feature mindist 2.70
END_CFG

BEGIN_CFG
Size
9
Supercell
14.750000 0.000000 0.000000
0.000000 14.250000 0.000000
0.000000 0.000000 13.750000
AtomData: id type cartes_x cartes_y cartes_z fx fy fz
1 0 8.068741 6.639091 7.060984 0.086511 -0.774887 -0.605240
2 0 7.429867 7.653649 6.180600 -2.449267 -1.682779 1.515820
3 0 6.703356 7.032245 7.535983 0.296774 0.662113 -1.104818
4 1 8.190882 5.654347 6.558315 0.121460 0.347602 0.726487
5 1 8.906349 6.999693 7.643737 0.365334 -0.144365 0.132800
6 1 6.841633 7.326061 5.311788 0.548733 0.137379 0.026927
7 1 7.717131 8.659583 6.223240 0.436220 1.491576 0.042742
8 1 5.890179 6.334170 7.308912 0.100916 0.150304 -0.012399
9 1 6.515316 7.625195 8.459571 0.495348 -0.183148 -0.724426
Energy
-48.041387130000
PlusStress: xx yy zz yz xz xy
0.000360 -0.000115 0.001369 0.000048 -0.000647 0.000222
Feature EFS_by vasp
Feature from database:p.cfg
Feature mindist 2.70
END_CFG

BEGIN_CFG
Size
9
Supercell
14.750000 0.000000 0.000000
0.000000 14.250000 0.000000
0.000000 0.000000 13.750000
AtomData: id type cartes_x cartes_y cartes_z fx fy fz
1 0 8.090027 6.576342 7.047198 -0.427334 0.461550 1.047444
2 0 7.281837 7.488213 6.165719 0.616062 -0.452109 -1.085859
3 0 6.787771 7.267116 7.562945 1.233969 -0.122405 -0.379056
4 1 8.150027 5.505757 6.891557 -0.398948 -0.251756 -0.120319
5 1 9.015607 6.948428 7.502760 -0.142872 0.177260 -0.223256
6 1 6.755171 6.969627 5.332657 0.149257 0.478383 0.517622
7 1 7.838106 8.378941 5.846279 -0.528465 0.136039 0.171919
8 1 5.907525 6.656899 7.641865 -0.451673 -0.275653 0.211458
9 1 6.903473 8.059088 8.310943 -0.052350 -0.151590 -0.145936
Energy
-48.277816700000
PlusStress: xx yy zz yz xz xy
0.000690 0.000231 0.000405 0.000305 -0.000049 -0.000279
Feature EFS_by vasp
Feature from database:p.cfg
Feature mindist 2.70
END_CFG

BEGIN_CFG
Size
9
Supercell
14.750000 0.000000 0.000000
0.000000 14.250000 0.000000
0.000000 0.000000 13.750000
AtomData: id type cartes_x cartes_y cartes_z fx fy fz
1 0 8.039975 6.532062 7.105765 1.096339 0.162830 -0.526252
2 0 7.203564 7.329948 6.108919 0.954149 1.086978 -0.240090
3 0 6.928279 7.444581 7.564365 -0.323581 -0.484021 0.645922
4 1 8.138902 5.439213 7.221242 -0.966681 0.219190 -0.313155
5 1 9.090144 6.896945 7.199096 -0.750672 0.276653 0.170184
6 1 6.393599 6.893551 5.586168 -0.642805 -0.833675 -0.761837
7 1 7.582558 8.242333 5.582439 0.187741 -0.887872 0.363888
8 1 5.925261 7.023665 7.811591 0.879319 0.278761 0.450260
9 1 7.293116 8.324268 8.087233 -0.432044 0.186869 0.211572
Energy
-48.067883590000
PlusStress: xx yy zz yz xz xy
0.000888 0.000606 -0.000325 -0.000604 0.000137 -0.000348
Feature EFS_by vasp
Feature from database:p.cfg
Feature mindist 2.70
END_CFG

BEGIN_CFG
Size
9
Supercell
14.750000 0.000000 0.000000
0.000000 14.250000 0.000000
0.000000 0.000000 13.750000
AtomData: id type cartes_x cartes_y cartes_z fx fy fz
1 0 7.968412 6.552680 7.122948 1.164702 -1.697083 -0.189818
2 0 7.100074 7.179484 6.085419 -0.114487 -0.334172 0.228253
3 0 7.092440 7.607251 7.564443 -1.219266 0.761785 -0.074208
4 1 7.887733 5.520565 7.431763 -0.564108 -0.408401 0.098199
5 1 9.003379 6.801888 7.116946 1.025532 0.360698 -0.281080
6 1 6.256578 6.587803 5.725043 -0.101134 0.056512 0.191456
7 1 7.605073 7.689080 5.271728 0.016465 0.597069 0.138535
8 1 6.210173 7.308528 8.140179 0.020902 0.300718 -0.085826
9 1 7.591459 8.517859 7.877053 -0.236005 0.364919 -0.018775
Energy
-48.187018200000
PlusStress: xx yy zz yz xz xy
-0.000618 -0.000702 0.000543 0.000016 0.000225 0.000330
Feature EFS_by vasp
Feature from database:p.cfg
Feature mindist 2.70
END_CFG

BEGIN_CFG
Size
9
Supercell
14.750000 0.000000 0.000000
0.000000 14.250000 0.000000
0.000000 0.000000 13.750000
AtomData: id type cartes_x cartes_y cartes_z fx fy fz
1 0 7.972383 6.479187 7.125655 0.639707 -0.439077 1.564187
2 0 7.024117 7.020591 6.178446 -2.815350 0.722560 -0.355726
3 0 7.201455 7.814734 7.472153 1.223270 -0.616389 -0.826040
4 1 7.664709 5.526224 7.636619 0.418810 0.925711 -0.173482
5 1 9.071176 6.543528 6.907107 -0.958670 0.028910 0.191909
6 1 5.965622 6.608165 6.100081 1.369757 0.037431 0.008038
7 1 7.320214 7.469918 5.257952 0.468728 0.329416 -0.750192
8 1 6.359427 7.782100 8.138816 -0.257303 -0.202070 0.498695
9 1 7.728490 8.794906 7.480759 -0.080448 -0.791600 -0.157073
Energy
-48.121831110000
PlusStress: xx yy zz yz xz xy
0.000947 0.001305 -0.000367 0.000552 -0.000328 0.000075
Feature EFS_by vasp
Feature from database:p.cfg
Feature mindist 2.70
END_CFG

BEGIN_CFG
Size
9
Supercell
14.750000 0.000000 0.000000
0.000000 14.250000 0.000000
0.000000 0.000000 13.750000
AtomData: id type cartes_x cartes_y cartes_z fx fy fz
1 0 7.967550 6.451713 7.238019 -1.385092 2.145727 -1.319306
2 0 6.849478 6.994228 6.245839 1.544662 -1.154149 -0.424624
3 0 7.353408 7.876229 7.289191 0.587412 0.423500 1.520537
4 1 7.607835 5.800439 8.014545 0.273366 -0.574509 0.135840
5 1 8.950115 6.411910 6.774454 0.138932 -0.390635 0.437212
6 1 5.948231 6.438614 6.332814 -1.131444 -0.064560 0.216627
7 1 7.160105 7.128354 5.202293 0.016008 0.095783 0.214291
8 1 6.729703 8.154806 8.162344 0.120305 -0.378951 -0.398684
9 1 8.044186 8.698741 7.073379 -0.157302 -0.101781 -0.382804
Energy
-48.146248500000
PlusStress: xx yy zz yz xz xy
0.000231 0.000400 0.000425 -0.000154 0.000085 -0.000481
Feature EFS_by vasp
Feature from database:p.cfg
Feature mindist 2.70
END_CFG

BEGIN_CFG
Size
9
Supercell
14.750000 0.000000 0.000000
0.000000 14.250000 0.000000
0.000000 0.000000 13.750000
AtomData: id type cartes_x cartes_y cartes_z fx fy fz
1 0 7.915075 6.506115 7.302252 -1.320142 0.224729 -1.130342
2 0 6.733014 6.861510 6.329059 1.931715 1.303494 0.124612
3 0 7.540686 7.916683 7.158852 -1.383637 0.341010 -0.489573
4 1 7.600534 6.055277 8.230459 0.283807 -0.523845 0.223101
5 1 8.837735 6.254111 6.809753 0.410163 -0.659765 0.134139
6 1 5.704457 6.767526 6.612760 -0.505792 -0.503461 0.267367
7 1 6.921375 6.976384 5.224631 -0.120416 -0.496549 1.086115
8 1 7.052269 8.477675 7.954182 -0.161889 -0.218368 0.167872
9 1 8.103530 8.556647 6.522499 0.869095 0.529567 -0.382949
Energy
-48.102579090000
PlusStress: xx yy zz yz xz xy
0.000232 -0.000321 0.000917 0.000233 0.000632 0.000080
Feature EFS_by vasp
Feature from database:p.cfg
Feature mindist 2.70
END_CFG

BEGIN_CFG
Size
9
Supercell
14.750000 0.000000 0.000000
0.000000 14.250000 0.000000
0.000000 0.000000 13.750000
AtomData: id type cartes_x cartes_y cartes_z fx fy fz
1 0 7.827661 6.519163 7.319167 1.859509 -1.066821 1.958566
2 0 6.686423 6.845542 6.504515 -1.418891 0.666906 0.213911
3 0 7.656510 7.981657 6.935930 0.028279 -0.857458 -0.357961
4 1 7.554116 6.247263 8.377554 0.598000 0.310842 -0.807266
5 1 8.671147 5.903316 6.918681 -0.573622 0.539565 0.233911
6 1 5.700578 6.666108 6.992783 0.483450 0.591352 -0.443692
7 1 6.736225 6.481837 5.501787 -0.136498 0.141270 -0.950773
8 1 7.434491 8.652787 7.774023 -0.264272 -0.032260 -0.390018
9 1 8.341720 8.390985 6.156392 -0.573802 -0.293199 0.539278
Energy
-48.132331580000
PlusStress: xx yy zz yz xz xy
0.000272 0.000931 0.000199 0.000079 -0.000909 0.000623
Feature EFS_by vasp
Feature from database:p.cfg
Feature mindist 2.70
END_CFG

BEGIN_CFG
Size
9
Supercell
14.750000 0.000000 0.000000
0.000000 14.250000 0.000000
0.000000 0.000000 13.750000
AtomData: id type cartes_x cartes_y cartes_z fx fy fz
1 0 7.857514 6.526392 7.432075 -0.576397 0.886789 -0.393911
2 0 6.623358 6.904962 6.634419 -1.311628 -0.548296 0.164796
3 0 7.705324 7.873320 6.705019 1.294642 0.279546 0.330468
4 1 7.796541 6.580713 8.500692 -0.467516 0.257096 0.728412
5 1 8.556703 5.736820 7.217484 0.281894 -0.194916 -0.992248
6 1 5.674143 7.148869 7.144767 0.401867 -0.267013 -0.006466
7 1 6.462199 6.591817 5.616223 -0.101130 -0.913422 -0.261232
8 1 7.505908 8.735942 7.323769 0.381462 0.413575 0.192961
9 1 8.255374 8.048825 5.775359 0.094273 0.084678 0.239083
Energy
-48.120671900000
PlusStress: xx yy zz yz xz xy
-0.000034 -0.000157 0.000009 -0.000728 0.000204 -0.000774
Feature EFS_by vasp
Feature from database:p.cfg
Feature mindist 2.70
END_CFG

BEGIN_CFG
Size
9
Supercell
14.750000 0.000000 0.000000
0.000000 14.250000 0.000000
0.000000 0.000000 13.750000
AtomData: id type cartes_x cartes_y cartes_z fx fy fz
1 0 7.843699 6.638139 7.475748 -0.218855 -1.336242 1.133337
2 0 6.522723 6.956511 6.743074 1.428399 -1.735643 -0.541116
3 0 7.798680 7.759364 6.533310 -0.331863 0.361107 0.290894
4 1 7.927460 6.803391 8.554680 -0.363464 0.582956 -0.040806
5 1 8.392475 5.704506 7.321870 -0.118514 0.020008 -0.767657
6 1 5.711960 7.257835 7.354342 -0.766205 0.701518 0.524740
7 1 6.239904 6.163738 5.984957 0.325264 1.129010 0.555103
8 1 7.957060 8.737463 7.002348 -0.354822 0.048335 -0.434338
9 1 8.275374 7.583439 5.592873 0.402384 0.230234 -0.711401
Energy
-48.139655650000
PlusStress: xx yy zz yz xz xy
0.000503 0.000184 -0.000059 0.000227 0.000722 0.000295
Feature EFS_by vasp
Feature from database:p.cfg
Feature mindist 2.70
END_CFG

BEGIN_CFG
Size
9
Supercell
14.750000 0.000000 0.000000
0.000000 14.250000 0.000000
0.000000 0.000000 13.750000
AtomData: id type cartes_x cartes_y cartes_z fx fy fz
1 0 7.796205 6.707720 7.549198 1.747932 -0.231101 0.494066
2 0 6.508364 6.994276 6.905639 0.440798 0.869254 -1.029677
3 0 7.873592 7.611052 6.336353 -1.546639 -0.244464 -0.130469
4 1 8.047138 7.233319 8.503151 -0.246749 -0.571450 -0.557221
5 1 8.273607 5.704724 7.432787 -0.477372 0.590731 0.313338
6 1 5.791958 7.684541 7.352166 0.026969 -0.119645 0.109652
7 1 6.089903 6.225742 6.248539 -0.088864 0.119420 0.178520
8 1 8.070607 8.693575 6.480637 -0.198698 -0.653266 -0.098044
9 1 8.074180 7.200510 5.324666 0.343078 0.237927 0.717050
Energy
-48.192772910000
PlusStress: xx yy zz yz xz xy
0.000540 0.000999 0.000751 0.000280 -0.000343 0.000378
Feature EFS_by vasp
Feature from database:p.cfg
Feature mindist 2.70
END_CFG

BEGIN_CFG
Size
9
Supercell
14.750000 0.000000 0.000000
0.000000 14.250000 0.000000
0.000000 0.000000 13.750000
AtomData: id type cartes_x cartes_y cartes_z fx fy fz
1 0 7.865391 6.775049 7.647322 -1.308946 0.982201 -2.685933
2 0 6.555303 7.130491 6.943329 -0.587586 1.189621 1.510789
3 0 7.765882 7.407753 6.171041 1.010053 -0.977733 1.300011
4 1 8.106863 7.504182 8.377581 0.621234 0.272598 0.941764
5 1 7.989153 5.726842 7.799993 0.659546 -0.621186 0.115708
6 1 6.006918 7.969682 7.462236 0.279851 -0.727686 -0.922373
7 1 5.956818 6.312433 6.626826 -0.764502 -0.709608 -0.214966
8 1 8.107048 8.414815 6.110900 0.313928 0.875778 -0.016103
9 1 8.079515 6.811528 5.318718 -0.225450 -0.288240 -0.027889
Energy
-48.072944180000
PlusStress: xx yy zz yz xz xy
-0.000396 -0.000287 0.000875 -0.000316 -0.000078 -0.000480
Feature EFS_by vasp
Feature from database:p.cfg
Feature mindist 2.70
END_CFG

BEGIN_CFG
Size
9
Supercell
14.750000 0.000000 0.000000
0.000000 14.250000 0.000000
0.000000 0.000000 13.750000
AtomData: id type cartes_x cartes_y cartes_z fx fy fz
1 0 7.903048 6.899304 7.628028 -0.289679 0.592064 -0.631762
2 0 6.511072 7.255633 7.016958 0.960028 -1.165633 -0.169651
3 0 7.756752 7.156171 6.172455 -0.105995 1.175097 -1.705486
4 1 8.458179 7.727339 8.114322 -0.330644 -0.857869 0.324398
5 1 8.149697 5.839608 7.791155 -0.199690 0.475014 0.729506
6 1 6.107284 8.250283 7.086874 -0.184473 0.366562 0.499071
7 1 5.776601 6.450310 6.874774 0.166453 0.220419 0.297607
8 1 8.106035 8.124677 5.744009 -0.040268 -0.548721 0.405563
9 1 7.837136 6.373509 5.415502 0.018005 -0.257775 0.253416
Energy
-48.148935490000
PlusStress: xx yy zz yz xz xy
0.000799 0.000735 -0.000120 0.000034 0.000215 0.000040
Feature EFS_by vasp
Feature from database:p.cfg
Feature mindist 2.70
END_CFG

BEGIN_CFG
Size
9
Supercell
14.750000 0.000000 0.000000
0.000000 14.250000 0.000000
0.000000 0.000000 13.750000
AtomData: id type cartes_x cartes_y cartes_z fx fy fz
1 0 7.948801 7.021385 7.566598 -0.809419 -0.030809 1.455017
2 0 6.548613 7.366693 7.059375 0.020231 -1.077636 0.230138
3 0 7.682417 6.941948 6.123970 0.242169 0.121443 -0.706405
4 1 8.493261 7.803212 8.100713 0.267775 -0.062283 -0.369189
5 1 7.902769 6.058350 8.075813 0.480337 0.014831 0.212329
6 1 6.268213 8.402745 7.058968 -0.095037 0.585602 -0.100415
7 1 5.721847 6.686975 7.426750 0.862227 0.530489 -0.889734
8 1 8.204153 7.654061 5.456893 -0.617883 0.014302 0.290081