BEGIN_CFG
Size
36
Supercell
18.500000 0.000000 0.000000
0.000000 18.500000 0.000000
0.000000 0.000000 14.500000
AtomData: id type cartes_x cartes_y cartes_z fx fy fz
1 0 11.261472 7.935828 7.216408 -2.460723 0.060642 -2.071914
2 0 10.240472 6.784328 6.855808 0.391805 -0.237443 2.193983
3 0 9.218072 6.598628 8.047208 -0.056520 0.884705 -0.582026
4 0 8.372272 7.904728 8.260208 0.197745 -1.667355 -1.644344
5 0 7.543872 8.072528 6.915708 -0.770753 1.243951 2.402731
6 0 6.623372 9.339128 7.013908 1.502583 -0.249037 -1.564851
7 0 7.455472 10.589128 6.540508 -1.200883 -0.530206 2.021159
8 0 8.153972 11.162128 7.836208 0.287379 0.757029 -2.128717
9 0 9.438472 11.933128 7.390208 0.313831 -0.925998 1.773200
10 0 10.707472 11.125128 7.884208 0.589480 1.333995 -2.115093
11 0 11.421472 10.473128 6.633308 -1.498136 -0.655315 1.317282
12 0 10.632472 9.144028 6.391808 2.855656 0.377098 0.259915
13 1 12.263472 7.672628 6.899908 0.481972 0.124797 -0.371901
14 1 11.296472 8.107528 8.291208 -0.143967 0.202672 0.311489
15 1 10.784472 5.861228 6.687808 0.194019 -0.623565 0.071203
16 1 9.717472 6.984628 5.918708 -0.015794 0.113764 -0.075302
17 1 8.510472 5.788128 7.844208 -0.126887 -0.228756 -0.216537
18 1 9.713472 6.309128 8.976208 0.480181 0.001999 0.158529
19 1 7.732672 7.813228 9.145208 -0.351878 -0.123361 -0.064636
20 1 9.025972 8.755428 8.460208 0.119653 -0.066590 -0.083720
21 1 6.964172 7.176628 6.758008 -0.556934 -0.660671 0.171359
22 1 8.191672 8.117628 6.054608 0.287443 0.305057 -0.382386
23 1 5.729672 9.191728 6.419408 -0.452332 -0.015028 -0.456475
24 1 6.297472 9.499128 8.033208 -0.194587 0.017513 0.554209
25 1 6.778172 11.326128 6.096308 -0.025506 0.350002 0.059880
26 1 8.170672 10.328128 5.759008 0.173512 -0.154181 -0.035375
27 1 7.455072 11.811128 8.362208 -0.314633 0.269155 0.081162
28 1 8.406972 10.359128 8.540208 -0.047581 0.199646 -0.188981
29 1 9.466472 12.113128 6.312508 -0.019165 -0.239444 -0.211497
30 1 9.475472 12.926128 7.831208 -0.068315 0.411298 0.325512
31 1 11.410472 11.791128 8.375208 0.307103 0.513513 0.211567
32 1 10.436472 10.404128 8.649208 -0.091336 -0.488252 0.057380
33 1 11.409472 11.139128 5.763308 -0.198932 0.220164 0.008617
34 1 12.466472 10.276128 6.848408 0.505798 -0.273314 0.096104
35 1 10.624472 8.899728 5.319908 0.174679 -0.287420 -0.057055
36 1 9.603472 9.287128 6.668308 -0.277123 0.042515 0.175038
Energy
-196.004942730000
PlusStress: xx yy zz yz xz xy
-0.000183 -0.000522 0.001799 -0.000268 0.000132 -0.000145
Feature EFS_by vasp
Feature from database:p.cfg
Feature mindist 2.70
END_CFG

BEGIN_CFG
Size
36
Supercell
18.500000 0.000000 0.000000
0.000000 18.500000 0.000000
0.000000 0.000000 14.500000
AtomData: id type cartes_x cartes_y cartes_z fx fy fz
1 0 11.277930 8.039746 6.954487 0.856997 -0.827197 1.373030
2 0 10.464658 6.716114 6.881579 -0.416255 -0.662045 -0.364979
3 0 9.297455 6.556600 7.943623 0.020781 -0.323076 0.220377
4 0 8.242552 7.677232 8.209762 0.235283 0.248008 -0.340245
5 0 7.227640 7.870551 7.050611 -0.032897 -0.386166 -1.036530
6 0 6.483766 9.252739 6.991754 0.232667 0.168571 1.152703
7 0 7.260925 10.638064 6.764049 -0.183260 -1.538145 -1.697820
8 0 8.041448 11.305887 7.908488 -1.180325 0.164145 0.811193
9 0 9.405463 11.962261 7.725422 0.885755 1.339735 -1.795192
10 0 10.789755 11.264768 7.884264 -0.035737 -0.626003 0.695312
11 0 11.469360 10.560542 6.671061 1.586052 0.260352 -0.564994
12 0 11.067686 9.197968 5.990031 -0.602970 1.042094 0.389627
13 1 12.384491 7.792133 6.977930 -0.805653 0.146248 -0.182651
14 1 11.103754 8.398644 8.017275 0.107604 0.006013 -0.840108
15 1 11.127638 5.813013 7.043620 -0.283408 0.819924 0.141302
16 1 10.090662 6.480265 5.841885 -0.000575 0.590637 0.609755
17 1 8.770178 5.621821 7.657127 -0.052559 0.177675 0.088291
18 1 9.728946 6.320575 8.949477 0.148309 0.142917 -0.518107
19 1 7.701122 7.449401 9.167284 0.326890 0.100256 -0.527612
20 1 8.795567 8.639284 8.389346 -0.347530 -0.542335 -0.101090
21 1 6.448907 7.019225 7.034263 0.796467 1.056966 0.296733
22 1 7.792964 7.673766 6.090260 -0.352061 0.403989 0.500223
23 1 5.632953 9.213561 6.265656 0.556236 -0.068056 0.285811
24 1 6.021811 9.348390 8.004007 -0.192618 0.038829 -0.316537
25 1 6.443207 11.262605 6.332914 0.542068 0.230082 0.427093
26 1 7.927484 10.457763 5.893414 0.039609 0.097533 0.091662
27 1 7.399231 12.179038 8.200708 0.181799 -0.728736 0.334180
28 1 8.060977 10.572684 8.733595 -0.002207 0.344364 0.258844
29 1 9.423022 12.351908 6.656573 -0.056367 -0.157406 0.663952
30 1 9.398615 12.932480 8.303229 0.158915 -0.891131 -0.083571
31 1 11.559242 12.009632 8.278845 -0.887554 -0.469893 -0.603472
32 1 10.783682 10.505455 8.720606 -0.281412 0.404886 -0.410220
33 1 11.622053 11.202994 5.761347 -0.292081 0.379863 0.869091
34 1 12.515009 10.458611 7.102913 -0.540732 -0.300640 -0.719584
35 1 11.684986 9.164418 5.038897 -0.545372 -0.370342 0.856627
36 1 9.997829 9.303042 5.677881 0.405781 -0.271549 0.041248
Energy
-196.088236310000
PlusStress: xx yy zz yz xz xy
0.002416 0.002409 0.002343 0.000426 0.000084 0.000067
Feature EFS_by vasp
Feature from database:p.cfg
Feature mindist 2.70
END_CFG

BEGIN_CFG
Size
36
Supercell
18.500000 0.000000 0.000000
0.000000 18.500000 0.000000
0.000000 0.000000 14.500000
AtomData: id type cartes_x cartes_y cartes_z fx fy fz
1 0 11.339794 8.107066 7.107845 -0.950618 0.110821 -0.615927
2 0 10.428451 6.917400 6.719816 0.049182 0.487390 -0.015143
3 0 9.377250 6.569381 7.761602 -0.998554 -0.645658 -0.301952
4 0 8.309699 7.666388 8.008656 -0.146958 -0.293063 -0.569686
5 0 7.152827 7.863272 7.002623 0.953658 1.505410 0.322900
6 0 6.451454 9.241133 7.228110 0.271885 -0.416204 0.488824
7 0 7.477499 10.356672 6.851682 -0.126366 -0.844586 1.387929
8 0 8.041722 11.117870 8.155070 0.472281 0.447693 -2.915703
9 0 9.335303 11.962181 7.700391 -0.576858 -0.333912 1.218441
10 0 10.676796 11.208086 7.794039 -0.792216 -0.486359 -0.489156
11 0 11.438460 10.766516 6.545356 -0.501970 -1.864907 0.411400
12 0 11.061105 9.278625 6.123234 0.683578 0.961104 1.347248
13 1 12.364082 7.856665 7.327003 0.865747 -0.185787 -0.394700
14 1 10.936516 8.365035 8.063061 -0.172358 0.703999 1.144538
15 1 10.881409 5.986730 6.466245 1.293396 -0.922387 0.020426
16 1 9.970093 7.145958 5.767322 -0.640480 0.362614 -0.540480
17 1 8.852507 5.677407 7.341629 0.071924 0.094880 0.419337
18 1 9.916156 6.212758 8.673447 -0.490350 0.383337 -0.133212
19 1 7.799753 7.602976 8.963893 0.103771 -0.337186 0.726567
20 1 8.811484 8.619347 8.005593 0.512134 0.601445 0.302024
21 1 6.472784 7.059588 6.964133 -1.112506 -1.344359 0.287640
22 1 7.506322 7.989915 5.982485 0.472388 -0.362028 -0.553368
23 1 5.524475 9.178123 6.627275 0.147557 0.569607 0.024762
24 1 6.156791 9.418387 8.295146 -0.073420 -0.390605 -0.469784
25 1 7.048856 11.047908 6.137403 -0.182854 0.676028 -0.125501
26 1 8.247400 9.801030 6.295296 0.350870 0.473841 0.090395
27 1 7.191526 11.763699 8.387166 0.084457 0.408437 0.516024
28 1 8.214718 10.425575 8.991929 0.174552 0.095446 -0.106760
29 1 9.160617 12.378070 6.720632 -0.201119 0.053583 -0.823714
30 1 9.499861 12.853550 8.322395 -0.519006 0.072285 0.294052
31 1 11.342750 11.756518 8.399412 0.982353 1.170409 0.859316
32 1 10.439788 10.368693 8.430552 0.180193 -0.909755 0.262925
33 1 11.297705 11.481927 5.738010 -0.229287 0.074802 -0.489185
34 1 12.511157 10.759987 6.747128 0.362764 0.102372 0.165123
35 1 11.534872 9.076756 5.190148 0.344468 -0.352650 -1.172172
36 1 9.991361 9.198584 6.021949 -0.660473 0.331415 -0.570788
Energy
-196.056810760000
PlusStress: xx yy zz yz xz xy
0.000163 -0.000071 -0.000253 -0.000102 0.000135 0.000299
Feature EFS_by vasp
Feature from database:p.cfg
Feature mindist 2.70
END_CFG

BEGIN_CFG
Size
36
Supercell
18.500000 0.000000 0.000000
0.000000 18.500000 0.000000
0.000000 0.000000 14.500000
AtomData: id type cartes_x cartes_y cartes_z fx fy fz
1 0 11.175600 8.243431 6.942385 1.655108 -1.444135 2.133098
2 0 10.469385 6.886356 6.576169 -0.620513 0.671469 -2.358202
3 0 9.358308 6.393392 7.537592 0.887246 1.059895 0.823563
4 0 8.434253 7.531930 8.050928 -0.397321 0.058120 0.472901
5 0 7.213697 7.757343 7.137866 -0.158507 -0.560197 -0.471289
6 0 6.556857 9.139586 7.258490 0.297327 -0.415172 -0.165662
7 0 7.472078 10.339003 6.891355 -1.771960 -0.078579 -1.205377
8 0 8.096660 11.070279 8.041316 -0.192351 -0.566132 1.638879
9 0 9.259426 12.027592 7.822304 1.261992 0.406139 -1.843864
10 0 10.731903 11.427108 8.000168 0.546470 -0.296485 0.403227
11 0 11.406119 10.778636 6.659429 -0.257147 1.032594 0.618991
12 0 10.897356 9.449155 6.083111 -0.889367 -0.109450 -0.844809
13 1 12.297838 8.085191 6.966145 -0.734448 -0.018301 0.016465
14 1 10.924912 8.435047 8.034800 0.260685 0.148470 -0.913685
15 1 11.193310 6.090749 6.185907 -0.751224 0.715540 0.887250
16 1 9.922191 7.191832 5.635847 0.240033 -0.489562 0.235241
17 1 8.718795 5.587910 7.168930 0.121241 -0.208886 -0.474723
18 1 9.874204 5.999234 8.412967 0.134667 -0.342358 0.424037
19 1 8.067830 7.226983 9.070569 0.246373 0.395957 -0.495239
20 1 8.973920 8.520418 8.168875 -0.314367 -1.067141 -0.019268
21 1 6.436573 6.920273 7.287610 0.920853 0.946966 -0.245576
22 1 7.609750 7.681353 6.097151 -0.386799 -0.186969 0.145490
23 1 5.662901 9.178631 6.615260 0.043447 -0.135436 -0.034965
24 1 6.185159 9.230793 8.271093 -0.254670 0.309275 0.711199
25 1 6.737196 11.015626 6.385203 0.652421 0.147543 0.074009
26 1 8.134565 10.017904 6.080020 0.326918 0.057095 0.072041
27 1 7.220123 11.511673 8.574527 0.541540 0.390327 -0.143815
28 1 8.428460 10.323076 8.791283 0.080433 -0.004047 -0.048969
29 1 9.298239 12.299324 6.723986 -0.466603 0.236256 0.682446
30 1 9.104041 12.986931 8.369348 0.322378 -0.535273 -0.049399
31 1 11.484991 12.237399 8.352152 -1.186370 -0.989058 -0.505656
32 1 10.667698 10.679589 8.845538 0.307284 0.410740 -0.595202
33 1 11.295634 11.631363 5.926704 0.203697 -0.816372 0.172861
34 1 12.501973 10.596042 6.795212 -0.398903 0.538474 0.304804
35 1 11.379629 9.260598 5.042583 -0.931255 0.411070 1.262876
36 1 9.777849 9.446689 6.025266 0.663968 0.318941 -0.670660
Energy
-196.206054910000
PlusStress: xx yy zz yz xz xy
0.002152 0.001845 0.001202 0.000335 -0.000972 0.000143
Feature EFS_by vasp
Feature from database:p.cfg
Feature mindist 2.70
END_CFG

BEGIN_CFG
Size
36
Supercell
18.500000 0.000000 0.000000
0.000000 18.500000 0.000000
0.000000 0.000000 14.500000
AtomData: id type cartes_x cartes_y cartes_z fx fy fz
1 0 11.299631 8.210825 6.819143 -0.955549 0.636250 -0.747649
2 0 10.395215 7.055102 6.347470 -0.132834 0.279447 1.465850
3 0 9.552634 6.437804 7.517881 -0.788730 -0.564155 -0.561299
4 0 8.336165 7.249778 8.102858 1.625782 0.347730 -0.537815
5 0 7.325755 7.708224 7.077222 0.506984 0.608984 -0.776562
6 0 6.587836 9.036408 7.295626 -1.025670 -0.170648 0.527312
7 0 7.223291 10.414786 6.985475 0.851294 -0.657013 0.472757
8 0 8.066117 10.999100 8.179987 -0.379773 0.227945 -0.195743
9 0 9.203370 12.003528 7.879541 1.114908 -0.130457 0.073446
10 0 10.751669 11.601038 7.906257 -0.811749 -2.542282 0.669864
11 0 11.513475 10.797181 6.741142 -1.658074 -0.056094 -0.101072
12 0 10.837228 9.513289 6.108796 0.346123 0.702360 2.981286
13 1 12.357954 8.112427 6.582953 0.387348 -0.502910 -0.049785
14 1 11.204730 8.242687 7.906242 0.117326 0.488376 0.326202
15 1 11.025960 6.287060 5.963958 0.520408 -1.113273 -0.454265
16 1 9.776224 7.384876 5.515921 -0.350220 0.064709 -0.245074
17 1 9.057292 5.524049 7.111771 0.486707 -0.033384 0.141233
18 1 10.277063 6.118289 8.310610 -0.567159 0.161859 -0.249063
19 1 7.812577 6.697169 8.873336 0.026624 -0.489340 0.457343
20 1 8.748253 8.120200 8.578491 0.361879 0.776550 0.611652
21 1 6.558631 6.961571 7.074758 -0.782943 -0.788756 -0.415771
22 1 7.784081 7.726536 6.062730 -0.201441 -0.045272 0.240237
23 1 5.691340 8.950002 6.636821 0.184640 0.121907 0.249555
24 1 6.154628 9.015155 8.359427 0.473405 0.288236 -1.006866
25 1 6.361543 11.048372 6.758309 0.027620 0.530170 0.147776
26 1 7.813794 10.411789 6.034308 -0.146923 -0.281020 0.473255
27 1 7.335523 11.543215 8.804253 -0.049098 0.099469 -0.073916
28 1 8.420994 10.246922 8.909303 0.110653 -0.291910 -0.510269
29 1 9.088200 12.515888 6.926546 -0.560614 0.220533 -0.446789
30 1 9.090149 12.784887 8.664496 0.369435 -0.103203 -0.331581
31 1 11.277933 12.515848 7.961803 0.736680 1.360930 0.195739
32 1 10.927020 11.090566 8.883741 -0.029056 0.094024 -0.272320
33 1 11.594098 11.605927 6.025462 0.328422 0.060804 -0.970954
34 1 12.533155 10.492268 7.023106 -0.010932 0.372144 0.358155
35 1 10.990398 9.378842 5.067619 0.430658 0.157809 -1.344187
36 1 9.767110 9.581268 6.268060 -0.556992 0.154662 -0.105131
Energy
-196.250679110000
PlusStress: xx yy zz yz xz xy
0.001258 -0.000097 0.000891 -0.000036 -0.000541 -0.000198
Feature EFS_by vasp
Feature from database:p.cfg
Feature mindist 2.70
END_CFG

BEGIN_CFG
Size
36
Supercell
18.500000 0.000000 0.000000
0.000000 18.500000 0.000000
0.000000 0.000000 14.500000
AtomData: id type cartes_x cartes_y cartes_z fx fy fz
1 0 11.202424 8.346713 6.817353 0.037443 0.859527 0.418811
2 0 10.474360 7.018876 6.376018 1.569595 0.899607 -1.402933
3 0 9.507866 6.411545 7.351431 0.161097 -0.269660 0.738835
4 0 8.488686 7.365204 7.926398 0.143836 0.349367 0.579394
5 0 7.396566 7.832831 6.936281 0.194126 -0.897956 0.694151
6 0 6.565584 8.998118 7.464679 -0.405061 -0.799425 -1.707179
7 0 7.233195 10.312812 7.230668 -1.052254 0.804826 0.926574
8 0 8.276214 10.661140 8.255423 0.603469 1.760194 -0.386966
9 0 9.169921 11.861612 7.716957 0.740543 -1.291634 1.017562
10 0 10.662746 11.498945 7.987833 0.604349 1.831827 0.140555
11 0 11.319510 11.036839 6.711525 0.418587 -0.382189 -0.949241
12 0 10.736287 9.687213 6.214776 -1.302705 0.163145 -2.230039
13 1 12.321953 8.310071 6.736718 -0.679006 -0.316252 0.105628
14 1 10.927811 8.551702 7.861662 0.607461 -0.536259 0.559006
15 1 11.330899 6.303240 6.182985 -0.975600 0.309773 -0.140215
16 1 9.956334 7.246598 5.412197 0.358471 -0.314928 0.191547
17 1 9.054190 5.503894 6.940679 -0.070965 -0.213221 -0.143556
18 1 10.097248 6.128297 8.226149 0.271067 -0.557125 0.243598
19 1 8.047256 6.910130 8.854289 0.009044 0.269384 -0.574268
20 1 9.171299 8.183285 8.311568 -1.156854 -0.367407 -0.268640
21 1 6.776853 6.927370 6.681454 0.260687 0.591564 0.148298
22 1 7.902813 8.143448 6.019508 -0.040389 0.030624 -0.390823
23 1 5.607776 9.066590 6.925367 -0.159841 -0.410500 -0.018881
24 1 6.323032 8.833043 8.493238 -0.234368 -0.015953 1.111777
25 1 6.399910 11.052177 7.232880 0.471112 0.261198 0.202249
26 1 7.643808 10.412292 6.234596 0.260691 -0.316224 -0.642866
27 1 7.824814 10.900999 9.236498 -0.119168 0.269222 -0.187869
28 1 8.958676 9.849418 8.516964 -0.125459 -0.171130 -0.354172
29 1 9.165925 11.994631 6.608698 -0.802567 0.012915 0.528777
30 1 8.874381 12.782967 8.224146 0.024908 0.279591 -0.120186
31 1 11.240509 12.381443 8.439415 -0.576742 -0.974236 -0.451181
32 1 10.793212 10.641319 8.629785 -0.234671 -0.185049 1.091343
33 1 11.129581 11.794373 5.905032 0.367839 -0.369472 0.373499
34 1 12.408344 10.919779 6.847985 0.068682 0.177981 -0.099820
35 1 10.767314 9.697137 5.066076 0.348906 -0.274722 1.098513
36 1 9.633679 9.764109 6.380468 0.428949 -0.199454 -0.092032
Energy
-196.263068670000
PlusStress: xx yy zz yz xz xy
0.000414 0.000365 0.000052 -0.000354 0.000368 0.000123
Feature EFS_by vasp
Feature from database:p.cfg
Feature mindist 2.70
END_CFG

BEGIN_CFG
Size
36
Supercell
18.500000 0.000000 0.000000
0.000000 18.500000 0.000000
0.000000 0.000000 14.500000
AtomData: id type cartes_x cartes_y cartes_z fx fy fz
1 0 11.237414 8.460411 6.951873 -2.667468 1.416843 -0.545545
2 0 10.682317 7.141514 6.302897 0.193592 0.581848 2.036228
3 0 9.612461 6.366320 7.142600 -0.256556 -0.424514 -0.866307
4 0 8.445762 7.118720 7.797502 0.044691 -0.848360 -0.024990
5 0 7.394290 7.776601 6.948704 0.026435 0.972579 -1.685482
6 0 6.411827 8.855263 7.529829 0.867343 0.434214 0.257281
7 0 6.925562 10.399644 7.513850 0.772189 -0.548789 0.051612
8 0 8.311735 10.693216 8.292715 -1.294886 -0.922513 0.168360
9 0 9.177449 11.907708 7.948327 -0.697290 0.532963 -0.212019
10 0 10.668886 11.653876 7.857607 0.953554 -2.574504 0.457001
11 0 11.369599 11.008642 6.588765 0.136170 0.020256 0.818058
12 0 10.828754 9.671143 6.074174 -0.605596 0.560671 0.859872
13 1 12.300046 8.475487 7.120172 0.763771 -0.243892 0.056240
14 1 10.724156 8.779912 7.911476 0.640399 -1.019994 -0.358116
15 1 11.585065 6.570578 6.348869 0.602212 -1.280119 -0.481439
16 1 10.426972 7.279991 5.246590 -0.256831 0.128444 0.036178
17 1 9.182239 5.586178 6.477900 0.153441 0.024876 0.084298
18 1 10.073336 5.805018 7.984795 0.237069 0.231407 -0.380887
19 1 7.941195 6.371138 8.413738 -0.163570 -0.222249 0.382667
20 1 8.917346 7.769330 8.485654 0.315230 1.249851 1.035475
21 1 6.741331 6.978302 6.537804 0.199650 0.083601 -0.012742
22 1 7.906757 8.230149 6.029441 -0.589579 -0.306441 0.800337
23 1 5.565533 8.768184 6.839680 -0.341150 0.435295 0.044932
24 1 6.010307 8.502680 8.532508 0.526302 0.588199 -0.651058
25 1 6.167311 11.042165 7.998356 -0.065993 -0.207012 -0.085817
26 1 6.976027 10.785451 6.448085 0.125772 -0.598697 0.726933
27 1 7.997784 10.772391 9.352941 0.182762 -0.089717 -0.092712
28 1 8.975379 9.821051 8.265597 -0.235149 -0.244482 -0.158429
29 1 8.742194 12.422194 7.061982 0.352023 0.051092 0.173186
30 1 9.148053 12.604024 8.808492 -0.506625 0.188976 -0.329846
31 1 11.157638 12.588871 8.036240 0.661908 0.833499 0.171668
32 1 10.912272 10.980743 8.780540 -0.151476 0.968024 -1.162992
33 1 11.353541 11.771168 5.816762 -0.062200 0.285507 -0.557243
34 1 12.446850 10.837354 6.829715 -0.304370 0.358658 0.062541
35 1 10.976700 9.518472 5.015929 0.778002 -0.101515 -0.696686
36 1 9.736871 9.782730 6.111502 -0.336062 -0.317491 0.080347
Energy
-196.121680320000
PlusStress: xx yy zz yz xz xy
0.001021 0.000847 0.001277 -0.000070 -0.000144 0.000219
Feature EFS_by vasp
Feature from database:p.cfg
Feature mindist 2.70
END_CFG

BEGIN_CFG
Size
36
Supercell
18.500000 0.000000 0.000000
0.000000 18.500000 0.000000
0.000000 0.000000 14.500000
AtomData: id type cartes_x cartes_y cartes_z fx fy fz
1 0 11.150839 8.494962 6.971161 1.451252 1.040384 -0.103490
2 0 10.528632 7.253744 6.297317 1.450721 0.291770 -0.903699
3 0 9.577957 6.348955 7.052260 0.339872 -1.496922 0.350646
4 0 8.375157 7.024640 7.714857 0.438944 0.075422 -0.454466
5 0 7.563762 7.969968 6.769969 -0.653571 0.011513 2.444697
6 0 6.626516 8.840030 7.721324 -0.904498 -3.038418 0.307771
7 0 7.062856 10.213145 7.760713 -0.907802 2.670621 -1.928112
8 0 8.416001 10.426984 8.228833 1.918353 0.237350 2.303706
9 0 9.053480 11.748121 7.846869 -0.770573 0.664541 0.379195
10 0 10.582923 11.730137 7.955083 -0.855778 2.364444 -3.749016
11 0 11.132618 11.161687 6.619550 0.640925 1.669677 -0.817780
12 0 10.965207 9.739974 6.100623 -0.545044 0.143353 -1.316353
13 1 12.273713 8.500564 7.203989 -0.994567 -0.768365 -0.443709
14 1 10.768994 8.752523 7.934502 -0.803014 -0.214337 1.103947
15 1 11.390984 6.690577 5.810068 -0.922590 0.113091 0.575810
16 1 9.978977 7.662350 5.429480 -0.034569 -0.158536 -0.006549
17 1 9.305323 5.537147 6.340090 -0.300085 0.311904 0.093212
18 1 10.090656 5.772128 7.861058 0.107021 0.320673 -0.247593
19 1 7.650888 6.271432 8.088997 0.382041 0.065433 0.118306
20 1 8.860226 7.529237 8.626821 -1.174349 -0.074466 -1.014158
21 1 7.072333 7.479886 5.923483 -0.368969 -0.484331 0.282057
22 1 8.201114 8.670605 6.300714 1.108881 0.901979 -0.651643
23 1 5.533262 8.676523 7.527169 0.630450 0.296743 -0.097333
24 1 6.798686 8.457973 8.755290 -0.367307 -0.261110 -0.253253
25 1 6.422231 10.941656 8.289160 -0.417113 -0.279765 -0.154172
26 1 7.171743 10.570289 6.728642 -0.856703 0.285081 -0.648117
27 1 8.320017 10.565728 9.315936 0.511728 -0.937449 0.493349
28 1 9.073723 9.576291 7.988555 -0.093624 0.284266 0.209564
29 1 8.611939 12.034059 6.857224 0.949114 0.018771 0.022072
30 1 8.618046 12.522029 8.516494 0.191306 -0.065528 -0.021897
31 1 10.971887 12.799229 7.829935 -0.574103 -0.802339 0.553278
32 1 10.959471 11.420992 8.869168 0.730694 -1.272522 1.958045
33 1 10.575550 11.845579 5.879723 0.549940 -0.950435 0.534278
34 1 12.144790 11.572430 6.463811 0.411016 -0.505191 0.350143
35 1 11.583426 9.580319 5.173619 -0.137355 0.385391 0.513897
36 1 9.948548 9.823655 5.663320 -0.127863 -0.847710 0.223036
Energy
-195.462801200000
PlusStress: xx yy zz yz xz xy
-0.000048 -0.000539 0.000319 0.000489 0.000208 -0.000517
Feature EFS_by vasp
Feature from database:p.cfg
Feature mindist 2.70
END_CFG

BEGIN_CFG
Size
36
Supercell
18.500000 0.000000 0.000000
0.000000 18.500000 0.000000
0.000000 0.000000 14.500000
AtomData: id type cartes_x cartes_y cartes_z fx fy fz
1 0 11.012646 8.666863 6.825701 -0.917029 -0.466369 1.978104
2 0 10.560239 7.384435 6.103841 -0.899869 0.524095 -0.309059
3 0 9.768422 6.329395 6.907856 -1.037262 0.307416 0.055955
4 0 8.515692 6.871609 7.735889 -0.069877 -0.127963 -1.666359
5 0 7.473572 7.719458 6.901307 0.878791 1.512596 -0.215981
6 0 6.531337 8.662682 7.721570 0.485367 0.344889 -0.219607
7 0 6.855279 10.177200 7.961791 1.673773 0.206220 0.191606
8 0 8.378254 10.484859 8.316894 -0.187103 -0.217690 -0.020727
9 0 9.064309 11.818941 7.858279 -1.694047 -0.133135 1.163794
10 0 10.594165 11.764125 7.871561 1.094793 -1.036032 1.362234
11 0 11.454956 11.186379 6.704347 -0.219132 0.191398 0.788306
12 0 10.870967 9.955827 6.074789 -0.024764 -0.333065 -1.530810
13 1 12.037130 8.567190 7.156425 0.862443 -0.130960 -0.015073
14 1 10.486067 8.771833 7.833260 0.299624 -0.242021 -0.967892
15 1 11.420217 6.932454 5.606823 0.281937 -0.346884 0.010669
16 1 9.900169 7.667555 5.248670 0.189315 0.101078 0.294660
17 1 9.392415 5.617766 6.168966 -0.205801 -0.259158 -0.266932
18 1 10.414493 5.712390 7.534323 0.230777 0.096023 0.517684
19 1 7.938847 6.053635 8.206728 0.341074 -0.121329 -0.110840
20 1 8.911402 7.465911 8.549744 -0.008040 0.494994 0.425363
21 1 6.757354 7.184879 6.232182 0.799082 -0.596670 0.455258
22 1 7.985852 8.435643 6.164908 -0.158295 -0.887537 0.730606
23 1 5.654437 8.556300 7.109617 -1.172988 0.631139 -0.106587
24 1 6.244424 8.263760 8.686692 0.091732 -0.593338 0.523934
25 1 6.252937 10.516190 8.815380 -0.322517 0.200808 -0.264273
26 1 6.675343 10.811001 7.078343 -0.494927 -0.192850 -0.073674
27 1 8.566733 10.448028 9.406945 -0.116499 -0.530703 -0.147408
28 1 8.916027 9.683305 7.814808 0.295757 -0.216803 0.242849
29 1 8.440291 12.157595 7.021783 0.834745 0.197887 -0.924312
30 1 8.772908 12.578371 8.630104 0.274741 -0.222153 -0.246498
31 1 10.989502 12.753201 8.051758 0.093752 0.804032 0.048233
32 1 10.883091 11.230479 8.871101 -0.491407 0.480687 -1.384356
33 1 11.465457 11.940136 5.942421 -0.052888 0.824399 -0.801970
34 1 12.540041 11.089486 6.970496 -0.637463 -0.169925 0.268233
35 1 11.345044 9.769929 5.075887 -0.195294 0.310375 0.257748
36 1 9.809184 10.212296 5.857248 0.180579 -0.402414 -0.052344
Energy
-196.172006610000
PlusStress: xx yy zz yz xz xy
0.001570 0.000386 0.000849 0.000154 -0.000273 0.000064
Feature EFS_by vasp
Feature from database:p.cfg
Feature mindist 2.70
END_CFG

BEGIN_CFG
Size
36
Supercell
18.500000 0.000000 0.000000
0.000000 18.500000 0.000000
0.000000 0.000000 14.500000
AtomData: id type cartes_x cartes_y cartes_z fx fy fz
1 0 11.158136 8.632462 6.621888 1.284363 0.142201 -0.499151
2 0 10.415591 7.519025 5.862205 0.082459 -0.393815 0.168133
3 0 9.732879 6.507951 6.813617 0.642458 -1.190171 -0.617489
4 0 8.657022 7.079391 7.683465 -0.221494 -0.144857 1.261823
5 0 7.399623 7.593448 7.015577 -0.763668 1.136330 1.340948
6 0 6.553441 8.582548 7.949406 0.173871 -0.844677 0.022453
7 0 7.041761 10.052497 7.805892 -1.752979 -0.398162 -0.191836
8 0 8.363482 10.373338 8.360997 1.449717 0.039830 0.443219
9 0 8.977289 11.677079 7.843576 -0.790415 -0.882301 -0.409003
10 0 10.473361 11.624634 8.040934 0.305260 3.089247 0.817634
11 0 11.354125 11.333862 6.895820 -0.054836 0.474853 -2.712596
12 0 10.928176 10.092907 6.097030 0.391614 -1.192813 0.217496
13 1 12.239905 8.303874 6.638846 -0.543460 0.711065 -0.060086
14 1 10.865374 8.566835 7.650970 -0.282112 0.121966 1.003155
15 1 11.099232 7.007725 5.151227 -0.168361 0.025673 0.291915
16 1 9.629717 7.928162 5.233807 -0.361232 0.382253 -0.345601
17 1 9.299643 5.655200 6.225067 0.280856 0.415125 0.099557
18 1 10.456135 6.020817 7.520667 -0.012308 0.302915 -0.568790
19 1 8.352370 6.287799 8.379686 -0.033701 -0.191347 0.252320
20 1 9.135151 7.833687 8.352395 -0.464942 -0.186647 -0.313175
21 1 6.720541 6.811471 6.705984 -0.132099 -0.797255 -0.089670
22 1 7.691674 8.083651 6.111956 0.030586 0.835079 -0.970309
23 1 5.442166 8.494840 7.696346 1.175469 0.178580 0.207475
24 1 6.676561 8.168821 9.015351 -0.239017 0.698500 -1.032403
25 1 6.350156 10.751909 8.309796 -0.455968 -0.108705 -0.359254
26 1 7.055388 10.287427 6.715692 -0.232824 0.001006 0.306167
27 1 8.359989 10.436988 9.461302 -0.108988 -0.256215 0.114280
28 1 9.061497 9.567435 8.102488 0.109159 0.151093 0.083442
29 1 8.671038 11.747724 6.789163 0.423961 0.035876 -0.365841
30 1 8.448502 12.535268 8.268850 0.289067 0.278668 0.496491
31 1 10.793577 12.619137 8.466097 -0.041908 -0.492334 -0.208765
32 1 10.803316 10.941129 8.771156 -0.224054 -1.216036 1.623288
33 1 11.311165 12.180902 6.125166 -0.002289 -0.658404 0.765198
34 1 12.398092 11.310273 7.201227 0.419791 -0.214837 0.188122
35 1 11.387399 10.158853 5.120430 0.194778 -0.020948 -0.706173
36 1 9.850446 10.150454 5.941903 -0.369561 0.176529 -0.249202
Energy
-196.562817490000
PlusStress: xx yy zz yz xz xy
-0.000297 0.000656 -0.000535 0.000071 0.000227 -0.000063
Feature EFS_by vasp
Feature from database:p.cfg
Feature mindist 2.70
END_CFG

BEGIN_CFG
Size
36
Supercell
18.500000 0.000000 0.000000
0.000000 18.500000 0.000000
0.000000 0.000000 14.500000
AtomData: id type cartes_x cartes_y cartes_z fx fy fz
1 0 11.296382 8.772888 6.492087 -2.322246 -0.602401 0.424577
2 0 10.278010 7.742214 5.800388 0.076333 0.915387 -0.628811
3 0 9.747032 6.593400 6.639041 -0.618752 0.306579 0.549615
4 0 8.782729 6.905261 7.812470 -0.802239 -0.843127 -0.180318
5 0 7.386610 7.364205 7.253267 0.192640 0.415461 -1.460579
6 0 6.563268 8.469134 7.962033 0.614410 0.752779 -1.233854
7 0 6.869340 10.010264 7.700591 0.838466 -0.973347 1.451778
8 0 8.319452 10.335528 8.285371 -0.449207 -0.009046 -1.282165
9 0 9.018360 11.721052 7.988319 -2.228225 -1.231907 1.146126
10 0 10.489244 11.584453 8.198635 1.736977 -0.717572 0.244247
11 0 11.346803 11.382728 6.929879 1.035143 -1.180909 -0.019476
12 0 10.984668 10.230004 5.949522 0.328491 -0.802510 0.715086
13 1 12.311726 8.445816 6.304092 0.552369 0.054683 -0.085654
14 1 11.100563 8.617831 7.625709 0.385621 0.733831 -1.390740
15 1 10.732875 7.183301 4.959556 0.284858 0.579853 -0.141577
16 1 9.440387 8.345936 5.325308 0.608181 -0.552120 0.490555
17 1 9.154650 5.960065 5.977881 -0.065864 -0.372086 -0.387672
18 1 10.629519 6.012808 6.895814 0.199589 -0.432558 0.659080
19 1 8.548259 5.961569 8.371729 0.514562 0.393515 -0.184015
20 1 9.204087 7.585158 8.548286 0.137145 0.390213 0.171788
21 1 6.732945 6.445305 7.169978 0.489430 0.703516 0.010666
22 1 7.573500 7.714863 6.177199 -0.371780 -0.399821 0.972413
23 1 5.534389 8.378223 7.656022 -0.815419 -0.417475 -0.217305
24 1 6.591680 8.233604 9.000427 -0.041067 0.131366 1.403971
25 1 6.010012 10.543437 8.167988 0.547892 0.139117 0.072066
26 1 6.788656 10.235494 6.622081 0.338534 -0.102011 0.046216
27 1 8.449943 10.181640 9.378196 -0.640743 -0.040518 -0.204056
28 1 8.919083 9.509192 7.853773 0.134157 0.448323 -0.043074
29 1 8.705779 12.162324 7.023194 0.301023 -0.208313 0.000687
30 1 8.570144 12.369921 8.783267 0.357606 0.107673 -0.509073
31 1 10.801267 12.529344 8.622494 0.631047 0.514870 0.348916
32 1 10.820589 10.789347 8.970618 -0.911088 0.875101 -0.829976
33 1 11.288869 12.277145 6.342676 0.034546 1.025117 -0.465049
34 1 12.447477 11.250651 7.215035 -1.083481 0.251395 -0.158892
35 1 11.531129 10.362249 4.965870 -0.498630 -0.021808 0.795115
36 1 9.887068 10.250822 5.743780 0.508219 0.175439 -0.065757
Energy
-196.315376300000
PlusStress: xx yy zz yz xz xy
0.001484 0.001581 0.001385 -0.000396 0.000231 -0.000333
Feature EFS_by vasp
Feature from database:p.cfg
Feature mindist 2.70
END_CFG

BEGIN_CFG
Size
36
Supercell
18.500000 0.000000 0.000000
0.000000 18.500000 0.000000
0.000000 0.000000 14.500000
AtomData: id type cartes_x cartes_y cartes_z fx fy fz
1 0 10.919106 8.981220 6.514346 2.870936 -1.562661 -2.345651
2 0 10.161502 7.942482 5.740012 -0.659532 -1.506313 0.080870
3 0 9.860438 6.661672 6.602617 0.591311 0.432446 0.343899
4 0 8.804856 6.906045 7.711529 0.464615 1.098263 -0.096854
5 0 7.392576 7.223322 7.191727 -0.877458 0.867307 0.649286
6 0 6.596642 8.365121 7.989029 0.795815 -0.536102 1.189176
7 0 6.989859 9.873467 7.861381 -1.012217 -0.699937 -0.981018
8 0 8.428399 10.119178 8.132240 1.205399 0.948890 0.257638
9 0 9.026407 11.560657 8.025963 0.036557 -0.882980 0.002581
10 0 10.572633 11.641399 8.291455 -1.029922 1.228365 -1.169363
11 0 11.363583 11.454070 6.984220 -1.000588 0.458276 -2.259221
12 0 10.933057 10.358574 5.930438 -1.036122 0.522149 1.754222
13 1 11.961692 8.566163 6.456972 -0.142653 0.431851 0.586717
14 1 10.616601 8.908980 7.500248 -0.391366 0.238510 2.287801
15 1 10.637074 7.684541 4.784503 0.248213 -0.099656 0.016491
16 1 9.227453 8.366958 5.462212 -1.406533 0.506783 -0.512760
17 1 9.542742 5.755963 6.035279 0.286082 0.508845 -0.122139
18 1 10.841102 6.440779 7.099848 -0.498763 -0.327167 -0.179681
19 1 8.746019 6.038449 8.360956 0.114658 -0.441397 0.272252
20 1 9.123441 7.749379 8.368930 0.093100 -0.583900 -0.213414
21 1 6.822877 6.325307 7.417737 -0.541114 -0.325688 -0.348505
22 1 7.392382 7.368983 6.117560 -0.080958 0.160694 -0.557354
23 1 5.489529 8.376497 7.842438 0.523942 -0.693937 -0.032856
24 1 6.844844 7.967499 9.031200 -0.773281 0.859952 -0.495399
25 1 6.340863 10.528144 8.461671 -0.157368 -0.239927 0.389170
26 1 6.660233 10.118458 6.820646 0.599989 0.228189 0.139801
27 1 8.693233 9.809501 9.150679 -0.287663 -0.117956 0.486208
28 1 8.982642 9.399534 7.558497 0.247400 0.106173 -0.672865
29 1 8.805258 12.024847 7.043164 0.012650 -0.081261 0.195927