BEGIN_CFG
Size
12
Supercell
15.250000 0.000000 0.000000
0.000000 14.750000 0.000000
0.000000 0.000000 13.000000
AtomData: id type cartes_x cartes_y cartes_z fx fy fz
1 0 8.697000 7.437000 6.440000 1.304462 0.054638 -0.061966
2 0 7.683000 6.303000 6.438000 0.084544 -1.305520 -0.056764
3 0 6.553000 7.313000 6.560000 -1.304474 -0.054486 0.062572
4 0 7.567000 8.447000 6.562000 -0.084800 1.305392 0.057026
5 1 9.355000 7.420000 7.337000 0.157986 0.050887 -0.670542
6 1 9.245000 7.522000 5.476000 0.242580 -0.022251 0.637095
7 1 7.771000 5.649000 7.334000 -0.029016 -0.158007 -0.674797
8 1 7.661000 5.751000 5.473000 0.048876 -0.243408 0.631610
9 1 5.895000 7.330000 5.663000 -0.158077 -0.050866 0.670616
10 1 6.005000 7.228000 7.524000 -0.242300 0.022329 -0.637463
11 1 7.589000 8.999000 7.527000 -0.048944 0.243304 -0.631715
12 1 7.479000 9.101000 5.666000 0.028964 0.158006 0.674862
Energy
-64.696354080000
PlusStress: xx yy zz yz xz xy
-0.001094 -0.001094 0.001948 -0.000177 0.000185 -0.000003
Feature EFS_by vasp
Feature from database:p.cfg
Feature mindist 2.70
END_CFG

BEGIN_CFG
Size
12
Supercell
15.250000 0.000000 0.000000
0.000000 14.750000 0.000000
0.000000 0.000000 13.000000
AtomData: id type cartes_x cartes_y cartes_z fx fy fz
1 0 8.757725 7.453546 6.255157 -3.095906 -0.193560 0.602338
2 0 7.673671 6.210161 6.575535 1.119069 1.897960 0.279779
3 0 6.518939 7.298701 6.625014 0.630264 0.585072 -0.300110
4 0 7.563931 8.515656 6.518621 -0.253029 -1.239190 0.384444
5 1 9.556832 7.510909 6.971075 0.786175 0.017881 0.161084
6 1 9.042587 7.577503 5.210347 0.409489 -0.474198 -0.104699
7 1 7.782883 5.866533 7.610519 0.472316 -0.026989 0.153771
8 1 7.758296 5.275315 5.967522 -0.625164 0.844301 -0.185986
9 1 5.784627 7.242979 5.819166 -0.017164 0.087421 -0.385973
10 1 5.926212 7.372083 7.557816 0.251730 -0.445472 -0.096149
11 1 7.593912 9.152736 7.436471 0.288569 -0.712730 -0.122378
12 1 7.383303 9.265413 5.735435 0.029251 -0.339995 -0.389300
Energy
-64.390981410000
PlusStress: xx yy zz yz xz xy
0.001187 0.002887 0.000089 0.000187 -0.000734 0.000186
Feature EFS_by vasp
Feature from database:p.cfg
Feature mindist 2.70
END_CFG

BEGIN_CFG
Size
12
Supercell
15.250000 0.000000 0.000000
0.000000 14.750000 0.000000
0.000000 0.000000 13.000000
AtomData: id type cartes_x cartes_y cartes_z fx fy fz
1 0 8.592042 7.391341 6.081859 1.557593 0.950320 0.259621
2 0 7.753059 6.340352 6.764168 -0.025539 -0.741509 0.815040
3 0 6.589282 7.304295 6.617585 -1.958496 -0.204259 0.009667
4 0 7.575663 8.446721 6.527782 -0.023426 1.676811 -0.311476
5 1 9.618186 7.576987 6.460293 -0.036488 -0.329008 -0.524251
6 1 8.530822 7.314760 4.987438 0.356225 -0.163822 -0.016481
7 1 7.978358 6.235798 7.842050 0.237599 0.195903 -0.098951
8 1 7.730411 5.319775 6.391344 -0.201001 -0.302861 -0.471784
9 1 6.007070 7.180328 5.676093 0.328634 -0.030017 0.218113
10 1 5.862354 7.333382 7.431710 -0.279253 -0.035454 0.211519
11 1 7.792664 8.964495 7.492873 0.040993 -0.618105 -0.210365
12 1 7.359476 9.282160 5.821560 0.005965 -0.402986 0.119519
Energy
-64.777248110000
PlusStress: xx yy zz yz xz xy
-0.000992 -0.000094 0.000368 0.000124 0.000535 -0.000107
Feature EFS_by vasp
Feature from database:p.cfg
Feature mindist 2.70
END_CFG

BEGIN_CFG
Size
12
Supercell
15.250000 0.000000 0.000000
0.000000 14.750000 0.000000
0.000000 0.000000 13.000000
AtomData: id type cartes_x cartes_y cartes_z fx fy fz
1 0 8.592526 7.349597 6.002274 -0.908325 0.532650 -0.613948
2 0 7.816230 6.360757 6.853455 -1.048979 -0.811784 -0.061163
3 0 6.533333 7.284469 6.742330 1.160283 0.458713 0.889383
4 0 7.571566 8.528985 6.431637 -0.377720 -2.343402 -0.783518
5 1 9.681998 7.365355 6.086134 0.178652 0.451327 0.314038
6 1 8.366616 7.151106 4.925625 0.164819 0.075629 0.397547
7 1 8.217231 6.294141 7.872410 -0.115401 0.339723 0.249666
8 1 7.736908 5.285232 6.528621 -0.035191 0.710116 -0.090225
9 1 5.962425 7.092011 5.847403 -0.066127 -0.253052 -0.807657
10 1 5.743150 7.252276 7.547979 0.974670 0.455551 -0.169287
11 1 7.838868 9.146865 7.278551 0.191680 0.102269 0.437140
12 1 7.288788 9.127049 5.556595 -0.116420 0.285002 0.235832
Energy
-64.574017350000
PlusStress: xx yy zz yz xz xy
0.001546 0.001405 0.000108 -0.000119 -0.000420 -0.000255
Feature EFS_by vasp
Feature from database:p.cfg
Feature mindist 2.70
END_CFG

BEGIN_CFG
Size
12
Supercell
15.250000 0.000000 0.000000
0.000000 14.750000 0.000000
0.000000 0.000000 13.000000
AtomData: id type cartes_x cartes_y cartes_z fx fy fz
1 0 8.603025 7.399476 5.993624 0.128519 -1.980550 -0.396832
2 0 7.763309 6.352880 6.850824 1.663669 -0.114122 0.371072
3 0 6.645070 7.347957 6.940372 -1.522220 0.369244 -0.498337
4 0 7.496218 8.412378 6.216178 -0.428801 1.724912 0.464244
5 1 9.655263 7.541151 6.282306 -0.225219 0.426447 0.372627
6 1 8.668827 7.055240 4.958662 -0.080388 0.041649 -0.387395
7 1 8.255771 6.173312 7.825223 -0.140960 0.005994 -0.076373
8 1 7.531604 5.373109 6.442056 0.052113 -0.286795 -0.422807
9 1 5.702315 7.088698 6.391045 0.620088 0.015932 0.093541
10 1 6.312174 7.558916 7.940919 -0.142613 0.379871 0.804067
11 1 7.811623 9.303724 6.855507 -0.499073 -0.799716 -0.722172
12 1 6.970877 8.753417 5.292298 0.576898 0.215548 0.399331
Energy
-64.701481730000
PlusStress: xx yy zz yz xz xy
0.000375 -0.000124 0.000025 -0.000181 0.000399 0.000833
Feature EFS_by vasp
Feature from database:p.cfg
Feature mindist 2.70
END_CFG

BEGIN_CFG
Size
12
Supercell
15.250000 0.000000 0.000000
0.000000 14.750000 0.000000
0.000000 0.000000 13.000000
AtomData: id type cartes_x cartes_y cartes_z fx fy fz
1 0 8.570028 7.339488 5.951636 0.283765 -0.473201 -0.494664
2 0 7.851606 6.301976 6.893813 -1.365392 1.593083 -0.891281
3 0 6.663583 7.464458 7.061016 2.284304 -0.572130 2.614869
4 0 7.398873 8.409580 6.099491 0.434311 -3.238626 -1.023295
5 1 9.597986 7.583942 6.256132 -0.166520 0.517448 0.582250
6 1 8.810914 6.920218 4.941245 -0.750680 0.387200 0.154620
7 1 8.448670 6.112144 7.801384 -0.471325 -0.329382 -0.095768
8 1 7.478655 5.385737 6.354604 0.461924 0.555626 0.680813
9 1 5.656131 7.160165 6.829842 -0.553001 -0.120521 -0.178839
10 1 6.722764 7.863266 8.138553 -0.414701 -0.544340 -1.189937
11 1 7.649177 9.371666 6.421297 0.403026 1.682560 0.610631
12 1 6.826804 8.416659 5.185395 -0.153241 0.549007 -0.765229
Energy
-64.433535670000
PlusStress: xx yy zz yz xz xy
0.001157 0.001082 0.000263 0.000390 -0.000092 -0.000919
Feature EFS_by vasp
Feature from database:p.cfg
Feature mindist 2.70
END_CFG

BEGIN_CFG
Size
12
Supercell
15.250000 0.000000 0.000000
0.000000 14.750000 0.000000
0.000000 0.000000 13.000000
AtomData: id type cartes_x cartes_y cartes_z fx fy fz
1 0 8.530330 7.347168 5.954401 1.402072 0.438320 -0.162963
2 0 7.812211 6.357582 6.881166 0.119110 1.268428 0.402237
3 0 6.829097 7.529706 7.242073 -0.871833 -0.981309 -1.609659
4 0 7.315853 8.259869 5.942580 -0.422039 1.295292 -0.441335
5 1 9.427726 7.827977 6.380598 -0.129571 -0.086785 0.346733
6 1 8.859493 7.013239 4.975130 0.088598 -0.422762 -0.434884
7 1 8.380427 5.994283 7.738747 0.089331 -0.515394 -0.046801
8 1 7.348999 5.591572 6.278297 -0.336093 -0.662543 0.048516
9 1 5.755315 7.225770 7.268036 0.429514 0.426776 0.283910
10 1 7.145723 8.037068 8.130700 0.075557 0.437229 0.766591
11 1 7.494175 9.416668 5.972880 -0.433547 -1.823238 -0.125534
12 1 6.738395 7.961582 5.012746 -0.009795 0.627324 0.983058
Energy
-64.702421890000
PlusStress: xx yy zz yz xz xy
-0.000163 0.000806 0.000341 -0.000015 0.000116 0.000400
Feature EFS_by vasp
Feature from database:p.cfg
Feature mindist 2.70
END_CFG

BEGIN_CFG
Size
12
Supercell
15.250000 0.000000 0.000000
0.000000 14.750000 0.000000
0.000000 0.000000 13.000000
AtomData: id type cartes_x cartes_y cartes_z fx fy fz
1 0 8.563158 7.319287 5.874127 -1.036789 0.787364 0.421884
2 0 7.799253 6.396048 6.934338 0.766640 -0.460779 -0.461606
3 0 6.948576 7.605924 7.350666 -0.127808 0.535110 -1.981218
4 0 7.200571 8.155615 5.851069 0.907027 -1.424627 1.405549
5 1 9.238093 8.022370 6.419660 0.205823 -0.677155 -0.311182
6 1 9.023959 6.971024 4.898674 -0.470725 0.043001 1.043022
7 1 8.347687 5.836271 7.731732 -0.036406 0.293473 -0.475854
8 1 7.184648 5.661017 6.351469 0.236632 0.377667 0.425451
9 1 5.879842 7.450801 7.536897 0.066429 -0.061286 0.583881
10 1 7.459726 8.284793 8.082889 -0.460469 -0.516015 -0.382225
11 1 7.223668 9.201475 5.771102 0.524771 1.894231 -0.139557
12 1 6.503550 7.850023 5.085072 -0.585630 -0.787577 -0.122570
Energy
-64.535281500000
PlusStress: xx yy zz yz xz xy
0.000730 0.000170 0.002067 0.000042 -0.000258 -0.000084
Feature EFS_by vasp
Feature from database:p.cfg
Feature mindist 2.70
END_CFG

BEGIN_CFG
Size
12
Supercell
15.250000 0.000000 0.000000
0.000000 14.750000 0.000000
0.000000 0.000000 13.000000
AtomData: id type cartes_x cartes_y cartes_z fx fy fz
1 0 8.434739 7.169700 5.744104 -1.205577 2.002117 0.928047
2 0 7.969954 6.531805 7.038880 -0.407881 -1.425937 0.444968
3 0 6.902753 7.613558 7.308287 -0.020918 -0.089317 -0.433699
4 0 7.210488 8.166698 5.922422 -0.153553 2.216465 -1.884127
5 1 9.336002 7.738964 5.914152 0.767176 0.082965 -0.406813
6 1 8.426980 6.569569 4.865015 0.298934 -0.549566 -0.882055
7 1 8.734238 6.271423 7.775562 0.094192 0.213638 0.323323
8 1 7.468868 5.591031 6.793293 -0.155712 -0.329576 0.148473
9 1 5.865517 7.253605 7.370250 0.124547 -0.009678 0.516947
10 1 7.136878 8.361146 8.060834 -0.052544 -0.048282 0.578104
11 1 7.443262 9.306451 5.893216 0.071416 -1.554794 0.122634
12 1 6.372855 8.126874 5.163213 0.630928 -0.508344 0.541793
Energy
-64.597310640000
PlusStress: xx yy zz yz xz xy
0.000436 0.000340 -0.000702 0.000366 0.000324 -0.000430
Feature EFS_by vasp
Feature from database:p.cfg
Feature mindist 2.70
END_CFG

BEGIN_CFG
Size
12
Supercell
15.250000 0.000000 0.000000
0.000000 14.750000 0.000000
0.000000 0.000000 13.000000
AtomData: id type cartes_x cartes_y cartes_z fx fy fz
1 0 8.287121 7.109770 5.671980 0.274235 -1.093294 -0.485546
2 0 8.080763 6.608560 7.137426 0.518373 -0.772833 0.351448
3 0 6.914070 7.602067 7.338363 -0.594144 0.856142 -0.256084
4 0 7.216957 8.189606 5.843608 -0.312235 -1.126178 1.932300
5 1 9.302421 7.537827 5.437999 -0.697923 -0.615254 -0.002943
6 1 7.967875 6.318906 4.932478 0.646911 0.593913 0.380977
7 1 8.956685 6.662917 7.829420 -0.344854 0.477590 -0.364887
8 1 7.790764 5.532489 7.232581 -0.069757 0.495638 -0.268109
9 1 5.922265 7.096989 7.513874 0.597281 0.329147 -0.574431
10 1 6.963847 8.349231 8.177335 0.337519 -0.407060 -0.582755
11 1 7.711363 9.124375 5.825458 0.327805 1.533821 0.423882
12 1 6.397857 8.257127 5.154430 -0.687838 -0.279009 -0.545737
Energy
-64.623579480000
PlusStress: xx yy zz yz xz xy
0.000589 0.000269 0.001440 -0.000549 -0.000311 0.000390
Feature EFS_by vasp
Feature from database:p.cfg
Feature mindist 2.70
END_CFG

BEGIN_CFG
Size
12
Supercell
15.250000 0.000000 0.000000
0.000000 14.750000 0.000000
0.000000 0.000000 13.000000
AtomData: id type cartes_x cartes_y cartes_z fx fy fz
1 0 8.118550 6.948674 5.591507 -0.038996 -0.239766 1.860829
2 0 8.234658 6.748064 7.194654 -0.534033 1.263191 -0.719027
3 0 6.906942 7.618353 7.278282 0.548029 -0.944276 1.195521
4 0 7.217576 8.175401 5.898662 0.814609 1.231613 -0.404531
5 1 9.046382 7.113213 5.061816 0.418718 0.105380 -0.355328
6 1 7.611694 6.082719 5.195023 -0.486662 -0.376106 -0.463775
7 1 9.081438 7.310463 7.614753 0.066517 0.200846 -0.190393
8 1 8.265274 5.784575 7.706841 -0.244394 -0.461257 -0.389330
9 1 6.038178 6.964818 7.456722 -0.142903 -0.096429 -0.816565
10 1 6.840497 8.296594 8.127531 0.184544 0.570121 0.164028
11 1 7.990796 9.030107 6.072562 -1.377172 -0.838585 -0.405720
12 1 6.393277 8.531714 5.207897 0.783009 -0.417669 0.513307
Energy
-64.621042020000
PlusStress: xx yy zz yz xz xy
0.000969 0.000340 0.000871 -0.000464 0.000288 -0.000318
Feature EFS_by vasp
Feature from database:p.cfg
Feature mindist 2.70
END_CFG

BEGIN_CFG
Size
12
Supercell
15.250000 0.000000 0.000000
0.000000 14.750000 0.000000
0.000000 0.000000 13.000000
AtomData: id type cartes_x cartes_y cartes_z fx fy fz
1 0 8.017643 6.852769 5.627329 1.603285 -0.802907 -0.108778
2 0 8.303581 6.862214 7.152587 -0.320582 -0.622165 0.533337
3 0 6.968303 7.683181 7.309124 0.553700 -0.799185 1.653015
4 0 7.201974 8.122626 5.892570 -1.117480 -1.311688 -0.713785
5 1 8.930235 6.825104 4.955025 -0.799837 0.435572 0.416809
6 1 7.461712 5.919269 5.373364 -0.271949 0.701234 0.052231
7 1 9.174450 7.496946 7.399860 -0.078642 -0.254159 0.018318
8 1 8.361831 5.860921 7.642105 0.164215 0.565441 -0.002043
9 1 6.129095 7.002662 7.501779 -0.161058 -0.167004 -0.493313
10 1 6.895768 8.413682 8.131535 0.247693 0.240200 -0.213858
11 1 7.809946 8.977665 5.937316 1.030913 1.464076 -0.398457
12 1 6.339042 8.254036 5.279896 -0.855235 0.548242 -0.747673
Energy
-64.674755400000
PlusStress: xx yy zz yz xz xy
0.000023 0.000143 -0.000302 0.000640 -0.000636 -0.000166
Feature EFS_by vasp
Feature from database:p.cfg
Feature mindist 2.70
END_CFG

BEGIN_CFG
Size
12
Supercell
15.250000 0.000000 0.000000
0.000000 14.750000 0.000000
0.000000 0.000000 13.000000
AtomData: id type cartes_x cartes_y cartes_z fx fy fz
1 0 8.073507 6.845277 5.609891 -0.286612 0.395052 1.412248
2 0 8.295290 6.826005 7.159522 -0.153463 0.382636 0.098355
3 0 7.118600 7.886383 7.432155 -0.067266 -1.093752 -1.469090
4 0 7.022489 7.961489 5.798853 -0.569240 1.158622 0.432020
5 1 8.913346 7.080823 4.996409 0.955625 0.533543 -0.493918
6 1 7.740071 5.873671 5.251261 -0.562490 -0.173884 -0.127752
7 1 9.314308 7.067662 7.524764 -0.358459 0.020507 -0.076338
8 1 8.003819 5.836408 7.501373 0.148653 -0.275053 0.617322
9 1 6.224952 7.390733 7.899049 0.547120 0.259978 -0.363035
10 1 7.275335 8.830389 8.004809 0.341254 -0.440596 -0.521201
11 1 7.390868 9.002343 5.458044 -0.675521 -1.443057 0.134456
12 1 6.018554 7.687906 5.359229 0.682360 0.674929 0.349801
Energy
-64.540000730000
PlusStress: xx yy zz yz xz xy
0.000678 0.001186 0.001453 0.000795 -0.000253 0.000007
Feature EFS_by vasp
Feature from database:p.cfg
Feature mindist 2.70
END_CFG

BEGIN_CFG
Size
12
Supercell
15.250000 0.000000 0.000000
0.000000 14.750000 0.000000
0.000000 0.000000 13.000000
AtomData: id type cartes_x cartes_y cartes_z fx fy fz
1 0 8.093395 6.861882 5.629238 0.319026 0.545740 -1.074356
2 0 8.222897 6.836432 7.169990 1.426307 -1.905886 0.237237
3 0 7.315226 7.989404 7.339195 -1.199029 0.981490 -0.528181
4 0 6.878044 7.817328 5.870483 0.554329 -0.444402 0.046342
5 1 8.952037 7.379844 5.060837 -0.970957 -0.641415 0.843896
6 1 7.844413 5.918651 5.080300 0.313585 0.411038 0.433744
7 1 9.221598 6.994021 7.593774 0.206267 -0.411057 0.043048
8 1 7.768474 5.907580 7.583263 0.410856 0.236374 -0.062484
9 1 6.481364 7.790361 8.012074 0.016473 0.604138 0.594187
10 1 7.841168 8.945107 7.473266 -0.247495 0.000610 0.419092
11 1 6.840178 8.702131 5.283093 -0.142902 1.001992 -0.776686
12 1 5.935924 7.301704 5.806419 -0.685064 -0.372828 -0.184680
Energy
-64.673870000000
PlusStress: xx yy zz yz xz xy
-0.000143 -0.000365 -0.000070 0.000186 -0.000464 0.001046
Feature EFS_by vasp
Feature from database:p.cfg
Feature mindist 2.70
END_CFG

BEGIN_CFG
Size
12
Supercell
15.250000 0.000000 0.000000
0.000000 14.750000 0.000000
0.000000 0.000000 13.000000
AtomData: id type cartes_x cartes_y cartes_z fx fy fz
1 0 8.144849 6.864690 5.619120 -3.628253 0.321482 1.231792
2 0 8.229885 6.777899 7.164762 0.127525 0.844833 0.262489
3 0 7.411791 8.167019 7.264388 0.594623 -1.197284 -0.951685
4 0 6.741046 7.711720 5.963555 -0.259307 -1.297600 -1.377748
5 1 8.865021 7.481969 5.154142 1.050553 0.985570 -0.390484
6 1 7.959240 5.990494 5.005948 0.160175 -0.586274 -0.028404
7 1 9.243765 6.681188 7.601470 -0.269041 0.223323 0.079402
8 1 7.581146 5.992334 7.582639 0.138761 -0.134180 -0.202409
9 1 6.724020 8.375621 8.098463 0.513268 0.179202 0.124189
10 1 8.127013 8.941548 6.966523 -0.062916 0.511073 0.654735
11 1 6.185376 8.358679 5.188645 1.080054 -0.329628 1.015962
12 1 5.983251 6.922008 6.260140 0.555667 0.470754 -0.420309
Energy
-64.396440030000
PlusStress: xx yy zz yz xz xy
0.001609 0.000558 0.000728 -0.000183 -0.000449 -0.001136
Feature EFS_by vasp
Feature from database:p.cfg
Feature mindist 2.70
END_CFG

BEGIN_CFG
Size
12
Supercell
15.250000 0.000000 0.000000
0.000000 14.750000 0.000000
0.000000 0.000000 13.000000
AtomData: id type cartes_x cartes_y cartes_z fx fy fz
1 0 7.910929 6.722632 5.676060 0.823016 -0.899063 -0.765992
2 0 8.406103 6.954089 7.128029 0.347012 -0.076227 0.198359
3 0 7.401537 8.131407 7.288657 0.064232 0.098959 -0.798263
4 0 6.794397 7.702737 5.910814 -1.052869 0.138693 1.004903
5 1 8.608549 7.010205 4.827253 -0.416139 -0.293283 0.960979
6 1 7.550417 5.688090 5.504073 0.276383 0.223163 -0.218874
7 1 9.481033 7.166662 7.224252 -0.052700 0.224339 0.119990
8 1 8.189944 6.136058 7.826791 -0.058598 -0.225332 -0.140368
9 1 6.693849 8.125371 8.135839 0.322014 0.009248 -0.048550
10 1 7.908917 9.098325 7.205583 -0.046051 0.207075 0.228281
11 1 6.571320 8.445772 5.174481 0.159124 0.902959 -0.669822
12 1 5.840232 7.199025 6.058961 -0.359645 -0.310560 0.132558
Energy
-64.793795370000
PlusStress: xx yy zz yz xz xy
-0.000021 -0.000396 0.000681 0.000028 -0.000320 0.000274
Feature EFS_by vasp
Feature from database:p.cfg
Feature mindist 2.70
END_CFG

BEGIN_CFG
Size
12
Supercell
15.250000 0.000000 0.000000
0.000000 14.750000 0.000000
0.000000 0.000000 13.000000
AtomData: id type cartes_x cartes_y cartes_z fx fy fz
1 0 7.794296 6.515696 5.729997 -0.786151 1.503406 2.840239
2 0 8.542651 7.104530 7.038980 0.623070 -0.206819 -0.353451
3 0 7.402404 8.124053 7.293560 -0.325762 -0.314778 0.239175
4 0 6.774166 7.750814 5.911225 -0.961565 0.461527 -0.938206
5 1 8.355346 6.306130 4.846383 0.468576 0.226025 -0.912893
6 1 7.300227 5.592441 6.062077 -0.143273 -0.057794 -0.240113
7 1 9.494902 7.643267 6.864865 -0.161680 -0.189857 -0.432875
8 1 8.804561 6.375494 7.845158 -0.454388 0.228888 -0.359384
9 1 6.778594 7.854956 8.180201 0.092318 0.037083 -0.518441
10 1 7.711890 9.182413 7.458164 -0.064815 -0.456909 -0.290561
11 1 6.719106 8.605109 5.151101 0.917044 -0.913259 0.604789
12 1 5.673015 7.499130 5.907196 0.793227 -0.315793 0.356589
Energy
-64.572480020000
PlusStress: xx yy zz yz xz xy
0.000860 0.001583 0.001297 0.000306 0.000604 -0.000425
Feature EFS_by vasp
Feature from database:p.cfg
Feature mindist 2.70
END_CFG

BEGIN_CFG
Size
12
Supercell
15.250000 0.000000 0.000000
0.000000 14.750000 0.000000
0.000000 0.000000 13.000000
AtomData: id type cartes_x cartes_y cartes_z fx fy fz
1 0 7.654351 6.470734 5.986217 0.949540 -1.247958 -2.641596
2 0 8.622663 7.214115 6.860949 0.343103 0.568585 0.347761
3 0 7.404754 8.041817 7.240770 0.190896 1.342067 2.782703
4 0 6.807708 7.764208 5.910486 -0.536919 -0.839584 -0.639509
5 1 8.194895 6.057713 5.066525 -1.151735 0.131401 0.580625
6 1 7.099165 5.675509 6.507422 0.169800 0.007065 0.008004
7 1 9.220410 7.925684 6.256529 0.319923 -0.567994 -0.040720
8 1 9.253059 6.651696 7.556661 -0.020821 0.167539 0.299992
9 1 6.861365 7.594549 8.080973 -0.307143 -0.418474 -0.035098
10 1 7.575077 9.060187 7.591965 0.061253 0.593040 -0.179950
11 1 7.195470 8.448978 5.170217 0.264473 0.345294 -0.548687
12 1 5.726958 7.695305 5.788662 -0.287299 -0.079500 0.064170
Energy
-64.583247310000
PlusStress: xx yy zz yz xz xy
-0.000088 -0.000445 -0.001011 -0.000695 -0.000366 -0.000229
Feature EFS_by vasp
Feature from database:p.cfg
Feature mindist 2.70
END_CFG

BEGIN_CFG
Size
12
Supercell
15.250000 0.000000 0.000000
0.000000 14.750000 0.000000
0.000000 0.000000 13.000000
AtomData: id type cartes_x cartes_y cartes_z fx fy fz
1 0 7.623091 6.411615 5.957158 0.586430 0.672901 0.618385
2 0 8.686213 7.207207 6.857428 -1.720091 0.295797 -0.487007
3 0 7.513144 8.247475 7.216393 0.245008 -1.156966 -0.093137
4 0 6.674409 7.643875 5.968366 0.702932 0.193335 0.632794
5 1 8.014371 6.183805 4.974559 0.107495 -0.410678 -0.500689
6 1 7.145405 5.499574 6.388131 0.508587 0.471199 0.057952
7 1 9.438334 7.727461 6.228766 -0.100114 -0.422452 0.186243
8 1 9.149465 6.633074 7.666487 0.147202 0.175735 0.120416
9 1 7.055374 7.992303 8.191632 -0.156882 -0.317661 -0.290291
10 1 7.797466 9.307076 7.379777 -0.142463 -0.119527 -0.794719
11 1 6.809585 8.210560 5.008815 -0.436675 -0.110802 0.769051
12 1 5.627747 7.323974 6.169701 0.261239 0.741844 -0.215598
Energy
-64.634849280000
PlusStress: xx yy zz yz xz xy
0.001277 0.001311 0.001117 0.000362 0.000348 0.000625
Feature EFS_by vasp
Feature from database:p.cfg
Feature mindist 2.70
END_CFG

BEGIN_CFG
Size
12
Supercell
15.250000 0.000000 0.000000
0.000000 14.750000 0.000000
0.000000 0.000000 13.000000
AtomData: id type cartes_x cartes_y cartes_z fx fy fz
1 0 7.658588 6.404734 5.930248 0.042013 1.112787 -0.479290
2 0 8.612007 7.203798 6.865938 1.153117 -0.809034 0.074102
3 0 7.613241 8.327127 7.006603 0.050265 1.006694 1.203976
4 0 6.610741 7.562069 6.180872 0.187759 -0.979923 -0.216546
5 1 8.036595 6.340484 4.876131 -0.316918 0.004884 0.630075
6 1 7.352280 5.423430 6.262236 -0.123391 -0.527305 0.145541
7 1 9.548851 7.474782 6.363057 0.186839 0.002171 0.156915
8 1 8.849059 6.719265 7.832564 0.096470 -0.043295 -0.302505
9 1 7.264021 8.437392 8.050442 0.126788 0.221976 -0.128328
10 1 7.920381 9.326575 6.669585 0.033305 -0.049558 -0.188930
11 1 6.275246 8.065922 5.296019 -0.656424 0.246494 -0.636052
12 1 5.818703 7.239436 6.846210 -0.777404 -0.184830 -0.261567
Energy
-64.737949050000
PlusStress: xx yy zz yz xz xy
-0.000903 -0.000099 0.000328 0.000027 -0.000587 -0.000079
Feature EFS_by vasp
Feature from database:p.cfg
Feature mindist 2.70
END_CFG

BEGIN_CFG
Size
12
Supercell
15.250000 0.000000 0.000000
0.000000 14.750000 0.000000
0.000000 0.000000 13.000000
AtomData: id type cartes_x cartes_y cartes_z fx fy fz
1 0 7.646648 6.453733 5.888575 -0.045692 -1.113045 0.999477
2 0 8.623682 7.156665 6.901653 -0.173699 0.519626 -0.664029
3 0 7.697239 8.480872 6.838059 -0.677767 -1.728143 -1.104892
4 0 6.554475 7.426182 6.356146 -0.498821 0.970561 0.791510
5 1 7.864800 6.580739 4.811729 0.303012 0.177320 0.311997
6 1 7.498371 5.331999 6.075317 -0.001163 1.206981 -0.275126
7 1 9.712128 7.110272 6.658607 -0.450957 0.571601 0.023371
8 1 8.519150 6.725884 7.910120 -0.131938 -0.110592 -0.101174
9 1 7.422623 9.022712 7.757740 0.417583 -0.051766 -0.104175
10 1 7.907393 9.171802 5.998591 0.317700 -0.139958 0.346835
11 1 5.725803 7.738330 5.646627 0.846187 -0.147653 0.572211
12 1 6.084965 7.108640 7.328250 0.096791 -0.163957 -0.796755
Energy
-64.625649200000
PlusStress: xx yy zz yz xz xy
0.001158 0.001689 0.001456 0.000255 0.000436 -0.000275
Feature EFS_by vasp
Feature from database:p.cfg
Feature mindist 2.70
END_CFG

BEGIN_CFG
Size
12
Supercell
15.250000 0.000000 0.000000
0.000000 14.750000 0.000000
0.000000 0.000000 13.000000
AtomData: id type cartes_x cartes_y cartes_z fx fy fz
1 0 7.612021 6.426465 6.032398 -0.443220 -0.168343 -0.894923
2 0 8.642717 7.204268 6.791019 0.964590 1.080264 0.593748
3 0 7.702183 8.446007 6.730011 -0.255152 -0.692991 -0.382056
4 0 6.552153 7.430300 6.444932 -0.591879 0.172647 0.933915
5 1 7.744472 6.459787 4.942975 0.252244 0.072103 -0.110021
6 1 7.411899 5.417627 6.291475 -0.035846 -1.391126 0.358160
7 1 9.664472 7.319716 6.409174 0.057073 -0.045081 -0.285983
8 1 8.765352 6.902767 7.838567 -0.207521 -0.286776 0.120673
9 1 7.671554 9.068044 7.631478 -0.160990 0.302926 -0.233701
10 1 7.828306 8.976464 5.786473 0.436991 0.664878 0.048087
11 1 5.747416 7.616594 5.730971 -0.042924 0.480366 -0.232569
12 1 6.057544 7.154453 7.388586 0.033688 -0.190398 0.078636
Energy
-64.780923460000
PlusStress: xx yy zz yz xz xy
-0.000238 -0.000960 0.000074 0.000219 0.000218 -0.000101
Feature EFS_by vasp
Feature from database:p.cfg
Feature mindist 2.70
END_CFG

BEGIN_CFG
Size
12
Supercell
14.500000 0.000000 0.000000
0.000000 14.250000 0.000000
0.000000 0.000000 13.750000
AtomData: id type cartes_x cartes_y cartes_z fx fy fz
1 0 6.467017 6.415075 6.573508 1.387317 -0.240412 0.633861
2 0 6.448817 7.865975 7.129308 1.542099 -0.798968 0.568478
3 0 8.010017 7.883975 6.906308 -0.120891 0.559475 0.621528
4 0 8.033017 6.323475 6.902308 -0.598685 0.446052 -1.897438
5 1 5.905417 5.690675 7.118308 -0.899130 -0.736865 0.409491
6 1 6.308417 6.257675 5.493608 -0.164276 0.449991 0.153384
7 1 6.186817 7.999975 8.218308 0.008264 -0.419827 -0.896375
8 1 5.990417 8.608975 6.540108 -1.151861 1.035647 -0.688783
9 1 8.191017 8.350975 5.893008 0.321463 -0.394804 0.955244
10 1 8.555017 8.380975 7.758308 0.025696 -0.154154 -0.998076
11 1 8.273017 5.911575 7.880308 -0.055988 -0.198832 0.236328
12 1 8.631017 5.810675 6.086608 -0.295960 0.450480 0.899310
Energy
-64.633015260000
PlusStress: xx yy zz yz xz xy
0.000422 0.000178 0.001519 0.000741 -0.000082 -0.000406
Feature EFS_by vasp
Feature from database:p.cfg
Feature mindist 2.70
END_CFG

BEGIN_CFG
Size
12
Supercell
14.500000 0.000000 0.000000
0.000000 14.250000 0.000000
0.000000 0.000000 13.750000
AtomData: id type cartes_x cartes_y cartes_z fx fy fz
1 0 6.646037 6.421752 6.318163 -0.454755 -1.461669 -0.648135
2 0 6.365566 7.733315 7.033510 0.583093 2.116495 -1.365414
3 0 7.937990 7.942926 7.148049 -1.899610 -1.332797 -0.580350
4 0 8.012209 6.396451 7.019999 -0.504341 -0.058382 1.893966
5 1 5.920622 5.534288 6.436030 0.942196 1.078318 -0.059046
6 1 6.863551 6.542332 5.234788 -0.503899 0.200745 0.201460
7 1 6.037941 7.613796 8.043822 -0.760359 -0.309616 0.826012
8 1 5.779288 8.561297 6.505211 0.422051 -0.963601 0.622239
9 1 8.294699 8.253877 6.183206 0.429948 0.919242 -0.528818
10 1 8.307906 8.518348 7.971672 0.527632 0.292215 0.634290
11 1 7.903120 5.835881 7.976670 0.238383 0.399165 -0.128342
12 1 8.898741 6.080306 6.537623 0.977839 -0.880900 -0.862795
Energy
-64.598429600000
PlusStress: xx yy zz yz xz xy
0.000310 0.000415 -0.000351 -0.000130 0.000237 0.000556
Feature EFS_by vasp
Feature from database:p.cfg
Feature mindist 2.70
END_CFG

BEGIN_CFG
Size
12
Supercell
14.500000 0.000000 0.000000
0.000000 14.250000 0.000000
0.000000 0.000000 13.750000
AtomData: id type cartes_x cartes_y cartes_z fx fy fz
1 0 6.815873 6.396167 6.180602 0.426221 1.680065 -0.963361
2 0 6.337361 7.746623 6.832669 -0.758690 -2.011312 1.598498
3 0 7.715238 7.918979 7.451416 1.791047 0.274711 -0.181684
4 0 8.089922 6.424782 7.035722 1.483835 0.684524 0.846953
5 1 6.029711 5.688727 6.218177 -0.502975 -1.557592 0.476830
6 1 7.087513 6.449763 5.128015 0.033948 0.340946 -0.491237
7 1 5.549795 7.403038 7.585193 0.755639 0.689919 -0.472289
8 1 5.923714 8.567768 6.296476 -0.363110 0.720572 -0.892162
9 1 8.314062 8.669895 6.838686 -0.435972 -0.693682 0.640426
10 1 7.868855 8.168168 8.535513 -0.367527 -0.039163 -0.671178
11 1 8.119896 5.790664 7.932156 -0.347357 -0.215720 -0.006833
12 1 9.153261 6.296898 6.586775 -1.714726 0.126472 0.118365
Energy
-64.512562590000
PlusStress: xx yy zz yz xz xy
0.000972 0.000495 0.000253 0.000226 -0.000543 -0.000293
Feature EFS_by vasp
Feature from database:p.cfg
Feature mindist 2.70
END_CFG

BEGIN_CFG
Size
12
Supercell
14.500000 0.000000 0.000000
0.000000 14.250000 0.000000
0.000000 0.000000 13.750000
AtomData: id type cartes_x cartes_y cartes_z fx fy fz
1 0 7.031888 6.494170 6.027610 -1.021496 -1.684121 -1.010672
2 0 6.303445 7.676584 6.702719 0.344823 0.792297 -0.874309
3 0 7.526388 7.833972 7.635336 -0.429585 -0.240143 0.770927
4 0 8.114518 6.493519 7.143956 -0.580375 0.155058 -0.323887
5 1 6.473515 5.483137 5.984524 0.428162 1.365436 -0.041397
6 1 7.272542 6.745742 4.956852 0.483663 -0.297558 0.840448
7 1 5.418026 7.386788 7.232856 -0.682343 -0.350374 0.615369
8 1 5.971696 8.531831 6.047378 0.546950 -0.524377 0.367983
9 1 8.234177 8.628109 7.467034 0.167875 0.775188 -0.472871
10 1 7.231968 7.921677 8.679589 0.072746 -0.148833 0.497061
11 1 8.099701 5.620425 7.807590 -0.432153 0.053443 0.174899
12 1 9.130840 6.576753 6.834515 1.106274 0.112259 -0.536817
Energy
-64.663427150000
PlusStress: xx yy zz yz xz xy
-0.000155 0.000613 0.000095 -0.000365 0.000671 -0.000338
Feature EFS_by vasp
Feature from database:p.cfg
Feature mindist 2.70
END_CFG

BEGIN_CFG
Size
12
Supercell
14.500000 0.000000 0.000000
0.000000 14.250000 0.000000
0.000000 0.000000 13.750000
AtomData: id type cartes_x cartes_y cartes_z fx fy fz
1 0 7.299975 6.648043 5.871945 0.241953 0.397095 1.822084
2 0 6.277920 7.569953 6.611077 -0.516148 -1.186210 0.519611
3 0 7.318232 7.766123 7.759072 0.060905 1.236851 -0.204421
4 0 8.069393 6.519859 7.272160 0.978946 -0.846557 -1.666287
5 1 6.954671 5.719531 5.463016 -0.474762 -0.636881 -0.486654
6 1 7.949560 7.145826 5.163339 0.152273 0.379249 -0.392192
7 1 5.422172 6.910028 6.938666 0.513462 0.565852 -0.085470
8 1 5.841103 8.453838 6.138044 0.117643 0.144654 -0.203564
9 1 7.841127 8.745413 7.575398 0.017288 -0.728766 0.126010
10 1 6.968026 7.803207 8.807262 -0.008451 -0.172311 -0.204554
11 1 7.796931 5.603924 7.838856 -0.046208 0.304561 -0.230491
12 1 9.187622 6.443837 7.030098 -1.039314 0.545826 1.010734
Energy
-64.704440770000
PlusStress: xx yy zz yz xz xy
0.000879 0.000522 0.000927 -0.000131 -0.000156 -0.000228
Feature EFS_by vasp
Feature from database:p.cfg
Feature mindist 2.70
END_CFG

BEGIN_CFG
Size
12
Supercell
14.500000 0.000000 0.000000
0.000000 14.250000 0.000000
0.000000 0.000000 13.750000
AtomData: id type cartes_x cartes_y cartes_z fx fy fz
1 0 7.569804 6.840327 5.857311 0.544137 0.773888 0.508422
2 0 6.308492 7.448936 6.530111 -0.603887 -0.405979 -1.601780
3 0 7.073538 7.669582 7.806888 0.835831 0.293889 0.304866
4 0 8.020234 6.535336 7.320289 -1.590143 -0.072190 -0.598534
5 1 7.430010 6.010574 5.113976 0.393956 0.679014 0.432259
6 1 8.236299 7.699702 5.528079 -0.702563 -0.894279 -0.377126
7 1 5.604653 6.660455 6.776337 -0.623548 -0.431178 -0.459155
8 1 5.846494 8.205125 5.874104 -0.317648 0.326289 0.737080
9 1 7.551993 8.650870 7.742840 0.454006 0.160646 0.275583
10 1 6.610135 7.562796 8.801807 -0.195973 0.028557 -0.257207
11 1 7.571864 5.558918 7.512769 0.132587 -0.294413 0.690000
12 1 9.031124 6.594827 7.600637 1.674482 -0.164638 0.346225
Energy
-64.583687420000
PlusStress: xx yy zz yz xz xy
-0.000901 0.000339 0.000487 0.000280 -0.000588 0.000108
Feature EFS_by vasp
Feature from database:p.cfg
Feature mindist 2.70