BEGIN_CFG
Size
15
Supercell
15.500000 0.000000 0.000000
0.000000 15.500000 0.000000
0.000000 0.000000 14.000000
AtomData: id type cartes_x cartes_y cartes_z fx fy fz
1 0 8.805067 8.370000 6.609000 0.850965 0.424360 -0.122455
2 0 7.402067 8.960000 6.728000 -0.287318 0.916849 -0.190202
3 0 6.487067 7.839000 7.215000 -0.918898 -0.065523 0.004522
4 0 7.397067 6.697000 7.635000 -0.139467 -0.612970 0.591889
5 0 8.662067 6.871000 6.817000 0.490198 -0.655799 -0.316515
6 1 9.459067 8.794000 7.403000 -0.078398 -0.062600 -0.384259
7 1 9.253067 8.591000 5.616000 0.063255 0.054029 0.453187
8 1 7.054067 9.338000 5.742000 0.070542 0.094261 0.428460
9 1 7.401067 9.802000 7.454000 -0.057902 -0.124797 -0.414240
10 1 5.830067 7.503000 6.382000 0.050948 0.138874 0.362742
11 1 5.852067 8.174000 8.063000 -0.023485 -0.165205 -0.415510
12 1 7.638067 6.790000 8.717000 -0.111396 -0.179100 -0.251907
13 1 6.925067 5.709000 7.447000 0.159288 0.238479 0.339757
14 1 8.539067 6.367000 5.832000 0.161631 0.036811 0.313541
15 1 9.545067 6.445000 7.340000 -0.221727 -0.037472 -0.388935
Energy
-82.170865410000
PlusStress: xx yy zz yz xz xy
-0.000306 -0.000273 0.001031 0.000434 0.000382 0.000115
Feature EFS_by vasp
Feature from database:p.cfg
Feature mindist 2.70
END_CFG

BEGIN_CFG
Size
15
Supercell
15.500000 0.000000 0.000000
0.000000 15.500000 0.000000
0.000000 0.000000 14.000000
AtomData: id type cartes_x cartes_y cartes_z fx fy fz
1 0 8.770473 8.509174 6.705624 -1.459554 -1.357568 0.050163
2 0 7.260210 8.959997 6.754790 0.266047 -0.629687 0.163041
3 0 6.446129 7.700807 7.254802 2.519705 -0.658302 0.374145
4 0 7.603419 6.645979 7.702627 -1.284306 -0.311697 -1.634125
5 0 8.674062 6.925354 6.578287 -0.077598 1.214020 0.721825
6 1 9.248131 8.681525 7.680915 0.041752 0.325101 -0.046731
7 1 9.320124 9.016249 5.920418 0.347109 0.066436 -0.333520
8 1 6.866323 9.266189 5.764811 0.304876 -0.015896 0.191630
9 1 7.218035 9.828036 7.409226 -0.437629 0.266645 0.288576
10 1 5.954396 7.255343 6.388041 -0.348373 -0.126754 0.005679
11 1 5.763214 7.816013 8.082763 -0.543808 0.468550 0.248256
12 1 7.970350 6.761010 8.718070 0.468300 0.904010 0.327974
13 1 7.155943 5.616016 7.827896 0.359365 0.481942 -0.903936
14 1 8.294689 6.689072 5.551049 0.220461 -0.226084 0.649918
15 1 9.693932 6.531767 6.747335 -0.376071 -0.391051 -0.100818
Energy
-81.796990520000
PlusStress: xx yy zz yz xz xy
0.001330 0.001144 0.000946 -0.000867 0.000069 0.000074
Feature EFS_by vasp
Feature from database:p.cfg
Feature mindist 2.70
END_CFG

BEGIN_CFG
Size
15
Supercell
15.500000 0.000000 0.000000
0.000000 15.500000 0.000000
0.000000 0.000000 14.000000
AtomData: id type cartes_x cartes_y cartes_z fx fy fz
1 0 8.640146 8.599767 6.636994 1.084741 0.355877 -0.042123
2 0 7.145892 8.922009 6.828866 -0.366379 0.124969 0.703451
3 0 6.522353 7.592547 7.400745 -0.769124 0.365933 0.693170
4 0 7.653505 6.581157 7.509647 0.312451 -2.341120 0.702494
5 0 8.786308 7.057053 6.612437 0.540362 0.970406 1.330092
6 1 9.271354 8.943522 7.493264 -0.535693 0.241297 -0.278562
7 1 9.062175 9.086453 5.723533 -0.130502 -0.255959 0.412980
8 1 6.583278 9.220435 5.921322 0.504649 -0.235759 -0.083776
9 1 7.014666 9.813393 7.499255 0.069514 -0.678154 -0.140058
10 1 5.760835 7.220714 6.690174 -0.047214 0.134079 0.268212
11 1 6.036280 7.743181 8.417731 0.263736 -0.091084 -1.067930
12 1 7.946791 6.340547 8.572353 0.254038 1.086922 -0.465081
13 1 7.436224 5.495407 7.268736 -0.569176 0.879507 -0.438094
14 1 8.681147 6.779608 5.593451 -0.277500 -0.906472 -1.184248
15 1 9.765519 6.683182 7.000076 -0.329219 0.349333 -0.408877
Energy
-81.890607060000
PlusStress: xx yy zz yz xz xy
0.000348 0.001068 0.000747 -0.000550 0.000075 -0.000448
Feature EFS_by vasp
Feature from database:p.cfg
Feature mindist 2.70
END_CFG

BEGIN_CFG
Size
15
Supercell
15.500000 0.000000 0.000000
0.000000 15.500000 0.000000
0.000000 0.000000 14.000000
AtomData: id type cartes_x cartes_y cartes_z fx fy fz
1 0 8.551526 8.691027 6.707829 0.845278 0.160027 0.740823
2 0 7.046165 8.805250 6.869855 -0.533342 0.358106 -1.273150
3 0 6.590356 7.502122 7.507814 -0.600990 -0.595498 -0.755858
4 0 7.777841 6.537224 7.419508 0.000649 -0.522357 -0.220960
5 0 8.787872 7.205674 6.514733 -0.172387 -0.059275 -2.396000
6 1 9.119074 8.957186 7.615396 -0.291411 0.368245 0.248194
7 1 8.989214 9.286780 5.909753 -0.031163 0.289295 -0.333699
8 1 6.563737 8.920110 5.866030 0.351215 -0.092076 0.283847
9 1 6.668648 9.654141 7.429452 0.199838 0.532996 0.330734
10 1 5.732323 7.071101 6.965136 -0.062830 0.137957 0.075311
11 1 6.239615 7.733750 8.499078 -0.075713 -0.335913 0.887832
12 1 8.229549 6.422595 8.390742 0.317793 -0.195682 0.796214
13 1 7.559536 5.521280 7.045212 -0.308916 0.146485 0.209203
14 1 8.575893 7.020847 5.388702 0.170003 -0.231339 1.399530
15 1 9.813946 6.873611 6.697449 0.196382 0.039856 0.006200
Energy
-82.056820440000
PlusStress: xx yy zz yz xz xy
-0.000108 -0.000587 -0.000018 0.000223 0.000255 -0.000264
Feature EFS_by vasp
Feature from database:p.cfg
Feature mindist 2.70
END_CFG

BEGIN_CFG
Size
15
Supercell
15.500000 0.000000 0.000000
0.000000 15.500000 0.000000
0.000000 0.000000 14.000000
AtomData: id type cartes_x cartes_y cartes_z fx fy fz
1 0 8.455053 8.844157 6.801096 1.473381 -1.529962 -0.728977
2 0 6.973064 8.714410 6.900849 -1.474478 0.277488 0.878428
3 0 6.608882 7.362025 7.600709 0.998681 1.044864 0.727776
4 0 7.892793 6.480158 7.354878 0.720769 0.003566 0.651359
5 0 8.831993 7.323631 6.341822 -0.178932 0.974764 2.303666
6 1 9.021991 9.017757 7.718157 -0.262771 0.176482 0.558105
7 1 8.756365 9.665333 6.110327 -0.021909 -0.584157 -0.019202
8 1 6.603681 8.656246 5.890088 -0.349813 0.083794 -0.847353
9 1 6.450803 9.588378 7.358976 0.261420 -0.340161 -0.055721
10 1 5.667637 6.913813 7.259814 0.074745 0.011309 -0.297808
11 1 6.444034 7.609098 8.691302 0.275313 -0.544363 -0.669234
12 1 8.469606 6.457486 8.363117 -0.768864 -0.468434 -1.439047
13 1 7.562383 5.427991 7.029133 0.905549 1.228028 0.336625
14 1 8.489730 7.242597 5.361515 -0.913431 -0.393540 -2.076491
15 1 9.928912 7.085863 6.269367 -0.741970 0.059015 0.682028
Energy
-81.647855580000
PlusStress: xx yy zz yz xz xy
0.001198 0.002051 0.000258 0.000060 -0.000794 0.000440
Feature EFS_by vasp
Feature from database:p.cfg
Feature mindist 2.70
END_CFG

BEGIN_CFG
Size
15
Supercell
15.500000 0.000000 0.000000
0.000000 15.500000 0.000000
0.000000 0.000000 14.000000
AtomData: id type cartes_x cartes_y cartes_z fx fy fz
1 0 8.364405 8.862335 6.678109 -0.978887 0.327715 0.493298
2 0 6.812623 8.688496 7.054127 0.543472 -0.700935 -1.164125
3 0 6.695977 7.242646 7.676928 0.533567 0.301810 -0.774623
4 0 8.009998 6.479473 7.190854 -2.124689 1.793377 -0.930232
5 0 8.854779 7.470143 6.419852 0.239063 -0.572501 -2.479716
6 1 8.986442 9.309478 7.489982 -0.701433 -0.015681 0.008565
7 1 8.547817 9.484426 5.799440 -0.242617 0.344753 -0.133564
8 1 6.130580 8.651861 6.122669 1.107147 0.448192 0.973750
9 1 6.515436 9.532068 7.678553 -0.395938 -0.030617 0.255402
10 1 5.741988 6.764952 7.368487 0.419131 0.036100 -0.088934
11 1 6.679625 7.221919 8.762064 0.029850 0.287150 0.506577
12 1 8.545907 6.202689 8.029062 1.105418 -1.111006 1.979636
13 1 7.779518 5.655571 6.562157 -0.295548 -1.221374 -0.400011
14 1 8.880363 7.264599 5.269955 -0.295726 0.125696 1.605264
15 1 9.875786 7.352265 6.723014 1.053205 -0.011879 0.145240
Energy
-81.730660520000
PlusStress: xx yy zz yz xz xy
0.001084 -0.000353 0.000264 0.000113 -0.000176 0.000364
Feature EFS_by vasp
Feature from database:p.cfg
Feature mindist 2.70
END_CFG

BEGIN_CFG
Size
15
Supercell
15.500000 0.000000 0.000000
0.000000 15.500000 0.000000
0.000000 0.000000 14.000000
AtomData: id type cartes_x cartes_y cartes_z fx fy fz
1 0 8.181917 8.884753 6.843026 1.095494 0.796948 -1.965536
2 0 6.743496 8.526198 6.985817 0.635391 0.278681 3.147723
3 0 6.912965 7.213066 7.751849 -1.417471 0.463477 1.118526
4 0 8.057013 6.529486 7.103228 1.703391 -2.671518 -0.402061
5 0 8.841893 7.592005 6.290976 1.448214 0.350370 2.187138
6 1 8.621603 9.126507 7.814570 0.045284 0.121294 0.192107
7 1 8.267134 9.771958 6.183308 0.449069 -0.130348 0.111971
8 1 6.237340 8.426038 6.080411 -0.975399 -0.231893 -1.848408
9 1 6.274185 9.293797 7.618253 -0.486507 -0.037302 -0.165896
10 1 5.994542 6.622810 7.777546 -0.191550 -0.289904 0.027658
11 1 7.169916 7.425779 8.816417 -0.234521 0.137638 -0.369518
12 1 8.742869 6.023853 7.925789 -1.188078 0.542225 -1.714045
13 1 7.668861 5.759111 6.355669 0.586350 0.331481 1.014161
14 1 8.754459 7.444139 5.235480 -0.296561 0.068518 -0.972495
15 1 9.958522 7.516811 6.538116 -1.164594 0.270932 -0.362146
Energy
-81.760850800000
PlusStress: xx yy zz yz xz xy
-0.000259 -0.000365 0.000277 -0.000050 0.000832 -0.000384
Feature EFS_by vasp
Feature from database:p.cfg
Feature mindist 2.70
END_CFG

BEGIN_CFG
Size
15
Supercell
15.500000 0.000000 0.000000
0.000000 15.500000 0.000000
0.000000 0.000000 14.000000
AtomData: id type cartes_x cartes_y cartes_z fx fy fz
1 0 8.076103 8.983682 6.782033 -0.151457 -0.759710 0.605921
2 0 6.651212 8.432267 7.147218 -0.414041 0.388965 -1.639723
3 0 6.970621 7.110001 7.798186 0.179089 -1.234629 -0.541066
4 0 8.186140 6.487310 6.997951 -0.890869 2.112917 -0.463265
5 0 8.877653 7.740593 6.277028 -2.877130 -0.773824 -0.875870
6 1 8.562653 9.272038 7.743330 -0.203070 0.283072 -0.366526
7 1 8.115763 9.815569 6.067478 -0.137363 0.108111 0.121624
8 1 5.996294 8.297323 6.179225 1.064190 0.182351 1.459335
9 1 6.049833 9.020838 7.869011 0.272346 0.323574 -0.425910
10 1 6.071901 6.453520 7.832950 0.423893 0.044551 -0.005523
11 1 7.263577 7.298455 8.835186 0.153986 -0.041803 0.257528
12 1 8.831053 5.931945 7.613838 1.209004 -0.611135 1.260641
13 1 7.870144 5.766696 6.262564 -0.501126 -0.302505 -0.651075
14 1 8.728000 7.592990 5.161436 0.200297 0.291835 0.886934
15 1 9.906597 7.861199 6.450008 1.677032 -0.017083 0.377657
Energy
-81.938724810000
PlusStress: xx yy zz yz xz xy
0.000851 0.000284 0.001002 0.000201 -0.000605 0.000225
Feature EFS_by vasp
Feature from database:p.cfg
Feature mindist 2.70
END_CFG

BEGIN_CFG
Size
15
Supercell
15.500000 0.000000 0.000000
0.000000 15.500000 0.000000
0.000000 0.000000 14.000000
AtomData: id type cartes_x cartes_y cartes_z fx fy fz
1 0 7.908490 9.063303 6.722889 0.143491 -0.850317 0.641058
2 0 6.635674 8.393742 7.276991 0.788038 -1.469072 0.859972
3 0 7.067851 6.896197 7.848933 1.516551 1.703773 -0.899708
4 0 8.283138 6.527058 6.878131 0.731054 -1.131642 0.712602
5 0 8.845073 7.879932 6.308211 1.491571 -0.260407 0.482723
6 1 8.262753 9.727585 7.521064 0.629667 0.031569 -0.174329
7 1 7.666353 9.658791 5.827752 0.073174 0.144499 0.240003
8 1 6.004836 8.279355 6.441148 -1.269873 -0.619016 -1.212859
9 1 6.093762 9.078770 7.944941 0.085375 -0.377454 0.438772
10 1 6.370062 6.065824 7.788306 -0.791104 0.211933 0.022626
11 1 7.405713 6.989725 8.906305 -0.070152 0.000609 -0.420806
12 1 9.129101 5.840565 7.323374 -1.255820 1.484651 0.005517
13 1 7.960250 5.775883 6.092473 -0.224450 1.134985 0.204824
14 1 8.759168 7.828050 5.229050 0.324343 -0.080351 -0.594844
15 1 10.002114 7.989423 6.547387 -2.168027 0.078192 -0.301255
Energy
-81.441178120000
PlusStress: xx yy zz yz xz xy
0.001150 0.002767 0.000398 -0.000351 -0.000257 -0.000969
Feature EFS_by vasp
Feature from database:p.cfg
Feature mindist 2.70
END_CFG

BEGIN_CFG
Size
15
Supercell
15.500000 0.000000 0.000000
0.000000 15.500000 0.000000
0.000000 0.000000 14.000000
AtomData: id type cartes_x cartes_y cartes_z fx fy fz
1 0 7.801354 9.017010 6.829633 -1.448553 0.794327 0.533602
2 0 6.608849 8.142811 7.276701 -1.453190 1.040816 -1.446707
3 0 7.308777 6.985304 7.839540 -0.267410 -2.127518 1.440888
4 0 8.298048 6.613882 6.776996 -1.550630 0.913557 -0.921746
5 0 8.746141 7.987035 6.298670 -0.153407 -0.672394 -2.025913
6 1 8.142012 9.529434 7.748957 0.388423 -0.060839 -0.206853
7 1 7.583791 9.807832 6.096951 -0.228088 -0.040393 0.040292
8 1 6.048878 7.796626 6.354857 0.209768 0.311167 0.593844
9 1 5.856899 8.576230 7.958496 0.240249 0.272241 -0.101537
10 1 6.614682 6.146635 8.088926 0.353591 0.304797 0.152594
11 1 7.852265 7.298923 8.739741 -0.025532 -0.116215 0.417692
12 1 9.047473 5.917855 7.001493 1.442448 -0.990517 0.697704
13 1 7.723099 6.186048 5.961253 -0.283907 -0.507748 -0.417496
14 1 8.818121 7.973424 5.184077 -0.059372 0.289315 0.450122
15 1 9.691310 8.171400 6.650565 2.837171 0.587380 0.793788
Energy
-81.786389430000
PlusStress: xx yy zz yz xz xy
-0.001739 -0.000969 -0.000241 0.000409 -0.000123 0.000484
Feature EFS_by vasp
Feature from database:p.cfg
Feature mindist 2.70
END_CFG

BEGIN_CFG
Size
15
Supercell
15.500000 0.000000 0.000000
0.000000 15.500000 0.000000
0.000000 0.000000 14.000000
AtomData: id type cartes_x cartes_y cartes_z fx fy fz
1 0 7.600042 9.042360 6.833151 0.344754 0.313747 -0.917159
2 0 6.564321 8.107335 7.423704 -0.345738 -0.715856 0.738391
3 0 7.377925 6.813668 7.806419 -0.174442 0.570816 -0.369088
4 0 8.434639 6.644971 6.707202 1.118253 0.163239 -0.006904
5 0 8.763957 8.117709 6.208371 1.264842 0.347947 2.542193
6 1 7.836020 9.764994 7.644551 0.915605 -0.406256 -0.349988
7 1 7.144440 9.698931 6.070400 0.120595 -0.171872 -0.156524
8 1 5.677783 7.952324 6.748112 0.733082 -0.357054 0.307212
9 1 6.155120 8.558988 8.348139 -0.133915 -0.133212 -0.171267
10 1 6.728469 5.942113 7.907002 -0.077590 -0.242570 0.173847
11 1 7.957233 6.950515 8.749732 -0.630623 0.149418 -0.144889
12 1 9.396991 6.214830 7.199679 -1.428893 0.144201 -1.164675
13 1 8.058107 6.032156 5.835276 0.481820 0.260424 0.803007
14 1 8.862326 8.119286 5.124061 -0.132304 0.400350 -0.243992
15 1 9.829703 8.410462 6.671172 -2.056376 -0.326146 -1.045861
Energy
-81.711236040000
PlusStress: xx yy zz yz xz xy
0.001974 0.001008 0.001129 0.000376 0.000770 -0.000735
Feature EFS_by vasp
Feature from database:p.cfg
Feature mindist 2.70
END_CFG

BEGIN_CFG
Size
15
Supercell
15.500000 0.000000 0.000000
0.000000 15.500000 0.000000
0.000000 0.000000 14.000000
AtomData: id type cartes_x cartes_y cartes_z fx fy fz
1 0 7.485504 9.023847 6.813216 -0.563078 -0.418235 1.127741
2 0 6.531215 7.950840 7.536302 2.113310 0.589621 0.293483
3 0 7.492948 6.766782 7.825200 0.239865 -0.255986 -1.342750
4 0 8.530073 6.713693 6.578148 -2.155443 2.543712 1.514357
5 0 8.706804 8.264146 6.235369 -2.351209 -1.761599 -1.610862
6 1 7.849477 9.743967 7.554461 0.067670 0.073418 0.255250
7 1 6.907840 9.643675 6.119923 0.004986 -0.172890 -0.404434
8 1 5.745757 7.760629 6.845192 -0.906124 -0.784121 -0.731751
9 1 6.062809 8.278605 8.480781 0.131091 0.328919 -0.197795
10 1 6.984085 5.797859 8.021963 0.084231 0.271923 -0.252376
11 1 8.077616 6.978209 8.734721 0.015946 0.137161 -0.024946
12 1 9.422448 6.286827 6.928387 1.560003 -0.830433 0.232957
13 1 8.131444 6.194233 5.725373 -0.318395 -0.513036 -0.457189
14 1 8.825695 8.395566 5.134092 -0.236987 -0.048441 0.371995
15 1 9.571040 8.645923 6.640463 2.310025 0.836229 1.223869
Energy
-81.835370060000
PlusStress: xx yy zz yz xz xy
-0.000089 0.000857 0.000696 -0.000680 -0.001354 -0.000194
Feature EFS_by vasp
Feature from database:p.cfg
Feature mindist 2.70
END_CFG

BEGIN_CFG
Size
15
Supercell
15.500000 0.000000 0.000000
0.000000 15.500000 0.000000
0.000000 0.000000 14.000000
AtomData: id type cartes_x cartes_y cartes_z fx fy fz
1 0 7.335045 8.937344 6.888787 -0.011608 1.933620 0.782069
2 0 6.609243 7.768123 7.533500 -1.984889 -0.416720 -0.918190
3 0 7.728903 6.797862 7.811735 -0.269902 -0.828203 0.774343
4 0 8.469260 6.894635 6.503396 1.371094 -2.634864 0.039345
5 0 8.610728 8.342031 6.270279 1.722661 1.824777 0.111248
6 1 7.598755 9.707888 7.682622 -0.228021 -0.579421 -0.703084
7 1 6.692749 9.466432 6.151913 0.293163 -0.134954 0.195083
8 1 5.892680 7.325022 6.698185 1.097096 0.457959 1.570150
9 1 5.964744 8.055562 8.387180 0.190063 -0.092675 -0.165777
10 1 7.415791 5.761424 8.017371 -0.179752 0.051739 0.030349
11 1 8.362013 7.090536 8.686329 -0.236261 0.162727 -0.414583
12 1 9.444547 6.319359 6.606392 -0.752306 0.526805 -0.569924
13 1 7.822023 6.397725 5.739329 0.474565 0.146048 0.128680
14 1 8.699503 8.639992 5.225308 0.100413 -0.097331 -0.379398
15 1 9.605719 8.713087 6.756953 -1.586806 -0.320456 -0.476633
Energy
-81.873316090000
PlusStress: xx yy zz yz xz xy
0.000936 -0.000653 0.000676 0.000440 0.001282 0.000231
Feature EFS_by vasp
Feature from database:p.cfg
Feature mindist 2.70
END_CFG

BEGIN_CFG
Size
15
Supercell
15.500000 0.000000 0.000000
0.000000 15.500000 0.000000
0.000000 0.000000 14.000000
AtomData: id type cartes_x cartes_y cartes_z fx fy fz
1 0 7.183253 8.927708 6.900716 0.492527 -1.414208 -0.312586
2 0 6.623882 7.684730 7.683555 3.554388 1.945094 1.914492
3 0 7.769464 6.636522 7.739879 0.312851 0.711210 0.121221
4 0 8.663701 6.984054 6.493908 -2.258684 -0.564407 -1.233729
5 0 8.531537 8.519092 6.192927 -1.712719 -1.589333 0.105473
6 1 7.325094 9.734089 7.598886 0.054810 0.761729 0.162428
7 1 6.451425 9.154660 6.147200 -0.515310 0.726422 -0.448929
8 1 5.832838 7.281506 7.202037 -2.833084 -1.371504 -1.729453
9 1 6.287757 8.032713 8.683551 0.061524 -0.353297 -0.207805
10 1 7.273944 5.661299 7.825679 0.354384 -0.435245 -0.758891
11 1 8.371051 6.644514 8.655525 0.087170 0.581846 0.292014
12 1 9.672745 6.613243 6.449889 0.743949 -0.226617 0.461491
13 1 8.145022 6.452956 5.642345 0.408229 0.308914 0.319925
14 1 8.564382 8.735988 5.103062 -0.247945 -0.174120 0.363822
15 1 9.350165 9.020587 6.603927 1.513897 1.096480 0.950744
Energy
-81.701364850000
PlusStress: xx yy zz yz xz xy
-0.000228 0.000058 0.000400 -0.000818 -0.001338 -0.000185
Feature EFS_by vasp
Feature from database:p.cfg
Feature mindist 2.70
END_CFG

BEGIN_CFG
Size
15
Supercell
15.500000 0.000000 0.000000
0.000000 15.500000 0.000000
0.000000 0.000000 14.000000
AtomData: id type cartes_x cartes_y cartes_z fx fy fz
1 0 7.020343 8.870980 6.894950 0.086214 -0.835077 0.286883
2 0 6.651327 7.528965 7.765895 -0.059231 -0.464220 -2.584680
3 0 7.973112 6.696664 7.684762 -0.073143 -0.344421 0.643148
4 0 8.636371 7.034472 6.338372 0.345899 0.786737 0.397425
5 0 8.461977 8.612273 6.309790 0.244823 -0.611995 1.010355
6 1 7.098118 9.769119 7.585015 -0.610410 -0.720091 -0.841962
7 1 6.287235 8.990184 6.043298 0.476620 0.259176 0.923008
8 1 5.773587 6.862563 7.277825 1.623528 1.651477 0.935938
9 1 6.371870 7.826769 8.763853 -0.235478 -0.116626 0.609947
10 1 7.803291 5.618491 7.919747 0.013833 0.342310 -0.474789
11 1 8.676153 7.014583 8.474466 -0.077325 0.191655 0.098405
12 1 9.682436 6.651157 6.193613 -0.431374 0.511826 0.526875
13 1 8.115711 6.552590 5.521126 -0.685054 -0.025755 -0.555165
14 1 8.590272 9.055728 5.315416 0.072817 0.009729 -0.054609
15 1 9.220555 9.095501 7.024519 -0.694204 -0.638054 -0.918779
Energy
-81.783018750000
PlusStress: xx yy zz yz xz xy
0.001783 0.002267 0.001049 0.000231 0.000032 0.000426
Feature EFS_by vasp
Feature from database:p.cfg
Feature mindist 2.70
END_CFG

BEGIN_CFG
Size
15
Supercell
15.500000 0.000000 0.000000
0.000000 15.500000 0.000000
0.000000 0.000000 14.000000
AtomData: id type cartes_x cartes_y cartes_z fx fy fz
1 0 6.903509 8.736355 6.959593 1.278871 0.179776 0.305201
2 0 6.769779 7.429168 7.752092 0.092749 0.841169 2.462809
3 0 8.101280 6.699789 7.613633 0.432640 0.716101 0.627039
4 0 8.616560 7.220276 6.308625 1.185290 -2.721301 -1.647120
5 0 8.349484 8.639135 6.360132 -1.784085 1.965603 -1.017980
6 1 6.791496 9.656245 7.541418 -0.006931 0.012572 0.339963
7 1 6.145331 8.793535 6.212765 -0.656837 -0.012356 -1.048040
8 1 5.936645 6.875016 7.423936 -1.261032 -0.975668 -0.555963
9 1 6.592819 7.662358 8.854443 -0.052291 -0.334861 -1.009157
10 1 8.165286 5.617620 7.633721 -0.425321 -0.447852 0.462863
11 1 8.713477 7.155932 8.433751 0.164179 -0.673853 -0.357796
12 1 9.688819 7.027082 6.183543 0.305247 -0.140700 0.019195
13 1 8.157607 6.642590 5.423508 0.111709 0.876801 0.933913
14 1 8.413449 9.120049 5.371853 0.102115 0.232808 0.098910
15 1 9.044533 9.110031 7.036281 0.520090 0.480290 0.391290
Energy
-81.832990340000
PlusStress: xx yy zz yz xz xy
-0.000755 -0.001065 0.000016 0.000650 0.000034 -0.000084
Feature EFS_by vasp
Feature from database:p.cfg
Feature mindist 2.70
END_CFG

BEGIN_CFG
Size
15
Supercell
15.500000 0.000000 0.000000
0.000000 15.500000 0.000000
0.000000 0.000000 14.000000
AtomData: id type cartes_x cartes_y cartes_z fx fy fz
1 0 6.816865 8.622279 7.008521 -1.806307 1.850987 0.115092
2 0 6.852389 7.346874 7.835405 -1.341607 -1.835678 -1.525647
3 0 8.184246 6.625349 7.574080 -0.425658 -0.145287 -2.132726
4 0 8.777260 7.310842 6.267188 0.426405 1.971599 2.241173
5 0 8.157145 8.822616 6.315981 0.273296 -1.240182 -0.433824
6 1 6.626247 9.493369 7.691049 0.189299 -0.393225 -0.190137
7 1 5.927707 8.775440 6.288266 1.072194 -0.873670 0.684510
8 1 5.979754 6.627448 7.613510 0.922972 0.944133 -0.035573
9 1 6.732964 7.532654 8.862353 -0.110363 0.499047 1.738993
10 1 7.977568 5.550331 7.333714 0.454387 0.494432 0.497578
11 1 8.830991 6.741886 8.423226 0.682658 -0.138058 0.507011
12 1 9.891785 7.288490 6.236491 -0.439827 0.129294 0.126128
13 1 8.451766 6.791384 5.403830 -0.671112 -0.504483 -1.180583
14 1 7.936144 9.211896 5.311848 0.483433 -0.004380 -0.131015
15 1 8.726486 9.608680 6.865640 0.290451 -0.757114 -0.283467
Energy
-81.698498250000
PlusStress: xx yy zz yz xz xy
0.000531 0.001649 -0.000153 -0.000139 0.000132 -0.000120
Feature EFS_by vasp
Feature from database:p.cfg
Feature mindist 2.70
END_CFG

BEGIN_CFG
Size
15
Supercell
15.500000 0.000000 0.000000
0.000000 15.500000 0.000000
0.000000 0.000000 14.000000
AtomData: id type cartes_x cartes_y cartes_z fx fy fz
1 0 6.679320 8.524266 7.024696 1.974516 -0.128772 0.449576
2 0 6.906351 7.214448 7.851546 1.242242 0.317390 1.969777
3 0 8.392761 6.703417 7.518157 -0.486110 1.870386 0.394700
4 0 8.662446 7.458415 6.202829 -0.743246 -0.777118 -0.846817
5 0 8.131286 8.848872 6.397961 -1.139865 0.321179 1.590587
6 1 6.140007 9.291122 7.570342 0.331227 0.585227 0.436101
7 1 6.063134 8.331669 6.209922 -1.448077 -0.708381 -1.777824
8 1 6.202353 6.430993 7.626380 -0.563391 -0.420078 -0.465567
9 1 6.794204 7.321300 9.017366 0.207391 0.239037 -1.870671
10 1 8.421523 5.639012 7.395027 0.135860 -0.869622 0.051209
11 1 9.097222 7.026750 8.346751 -0.500807 -0.342272 -0.781797
12 1 9.684929 7.513205 5.794998 0.006932 -0.536117 0.146891
13 1 7.936553 6.994339 5.429621 1.255621 0.291603 0.570475
14 1 8.278287 9.460585 5.488263 -0.755321 0.021536 0.196789
15 1 8.652269 9.354874 7.223151 0.482868 0.130135 -0.063279
Energy
-81.659990410000
PlusStress: xx yy zz yz xz xy
0.001044 -0.000103 0.001297 -0.000649 -0.000657 0.000210
Feature EFS_by vasp
Feature from database:p.cfg
Feature mindist 2.70
END_CFG

BEGIN_CFG
Size
15
Supercell
15.500000 0.000000 0.000000
0.000000 15.500000 0.000000
0.000000 0.000000 14.000000
AtomData: id type cartes_x cartes_y cartes_z fx fy fz
1 0 6.622583 8.437334 7.094203 -1.409007 -1.115126 -0.846630
2 0 7.027799 7.102792 7.895412 -0.276697 -0.752620 -3.301304
3 0 8.476804 6.742063 7.408176 -0.570884 -1.143794 -0.294729
4 0 8.720817 7.600567 6.186448 0.638273 0.610986 0.260071
5 0 7.898915 8.854303 6.426869 1.004364 1.289087 0.732556
6 1 6.229569 9.253983 7.745098 0.002744 -0.565143 -0.240614
7 1 5.880125 8.304842 6.198635 0.584222 -0.334502 1.777047
8 1 6.384425 6.210257 7.639117 0.127152 0.923698 0.239506
9 1 6.983251 7.247215 8.917617 -0.139097 0.360089 2.412284
10 1 8.623953 5.648473 7.135556 -0.398345 0.858394 0.389370
11 1 9.249614 6.942564 8.137738 0.233722 0.265952 0.670581
12 1 9.820373 7.746421 6.089037 -0.493005 0.207782 -0.429686
13 1 8.308884 7.139034 5.309938 -0.039970 -0.629959 -0.905243
14 1 7.714799 9.507603 5.573392 0.091640 -0.056624 -0.493086
15 1 8.378723 9.511914 7.164490 0.646178 0.077486 0.026240
Energy
-81.780280510000
PlusStress: xx yy zz yz xz xy
0.000242 0.000944 -0.000498 -0.000020 0.000488 -0.000893
Feature EFS_by vasp
Feature from database:p.cfg
Feature mindist 2.70
END_CFG

BEGIN_CFG
Size
15
Supercell
15.500000 0.000000 0.000000
0.000000 15.500000 0.000000
0.000000 0.000000 14.000000
AtomData: id type cartes_x cartes_y cartes_z fx fy fz
1 0 6.545088 8.255861 7.197533 1.965240 1.406776 0.015123
2 0 7.158888 7.064105 7.845667 -0.404685 -1.063446 3.255832
3 0 8.538688 6.745839 7.341288 1.442672 1.561240 -0.218970
4 0 8.758284 7.773920 6.152553 -0.520382 -0.750481 0.003939
5 0 7.737274 8.895820 6.433549 0.389983 1.183539 0.861146
6 1 6.158666 8.904361 7.978061 -0.352603 0.529000 -0.061172
7 1 5.794038 8.039346 6.500363 -1.512856 -0.623894 -1.023366
8 1 6.526173 6.224449 7.631696 -0.631897 -0.909493 0.295118
9 1 7.189094 7.204139 9.023650 -0.205171 -0.387926 -2.021851
10 1 8.687587 5.726733 7.052777 -0.193503 -0.967527 -0.609424
11 1 9.316955 6.849130 8.147448 -0.427892 0.435639 -0.511943
12 1 9.786256 8.128772 6.165526 0.307285 0.230745 -0.207120
13 1 8.575250 7.293309 5.155652 0.055740 0.160473 0.563856
14 1 7.427475 9.548696 5.588807 0.163371 -0.519331 0.011631
15 1 8.216675 9.611538 7.153311 -0.075481 -0.286637 -0.347357
Energy
-81.755505120000
PlusStress: xx yy zz yz xz xy
-0.000431 -0.000651 0.001172 -0.000006 0.000213 -0.000447
Feature EFS_by vasp
Feature from database:p.cfg
Feature mindist 2.70
END_CFG

BEGIN_CFG
Size
15
Supercell
15.500000 0.000000 0.000000
0.000000 15.500000 0.000000
0.000000 0.000000 14.000000
AtomData: id type cartes_x cartes_y cartes_z fx fy fz
1 0 6.469206 8.124192 7.121591 0.996624 -0.780477 -0.457005
2 0 7.234141 6.927200 7.919906 -0.321200 -0.299281 -4.088290
3 0 8.718729 6.912904 7.242457 -0.887587 -2.371473 0.507494
4 0 8.626194 7.828764 6.076756 0.896882 2.105166 -0.432892
5 0 7.682956 8.954244 6.651428 0.011169 -1.062301 -1.050034
6 1 5.781232 8.735398 7.730745 -0.102184 -0.408685 -0.066815
7 1 5.965500 7.724411 6.160737 0.324486 0.384968 1.508973
8 1 6.664583 5.963949 7.801194 0.569656 0.587560 0.047354
9 1 7.373676 7.108433 8.919153 -0.015069 0.698807 2.775381
10 1 9.068230 5.865221 6.975332 -0.548428 0.767435 0.117099
11 1 9.457099 7.225899 7.970316 0.242870 0.483763 0.437136
12 1 9.617587 8.288431 5.718237 -0.982726 -0.686925 0.505180
13 1 8.185614 7.319817 5.201200 -0.170472 0.228509 0.066255
14 1 7.498936 9.731217 5.906828 -0.359869 0.191979 -0.153406
15 1 8.149759 9.426459 7.514508 0.343135 0.168754 0.280743
Energy
-81.727273910000
PlusStress: xx yy zz yz xz xy
0.001598 0.001115 0.000023 0.000154 -0.000377 -0.000208
Feature EFS_by vasp
Feature from database:p.cfg
Feature mindist 2.70
END_CFG

BEGIN_CFG
Size
15
Supercell
15.500000 0.000000 0.000000
0.000000 15.500000 0.000000
0.000000 0.000000 14.000000
AtomData: id type cartes_x cartes_y cartes_z fx fy fz
1 0 6.500710 7.963479 7.264273 0.172179 0.631360 -0.005028
2 0 7.358619 6.821400 7.842293 0.699809 1.043011 2.579317
3 0 8.780355 6.914433 7.169193 -0.465121 0.501074 0.449730
4 0 8.637269 8.067352 6.126494 -0.664420 -0.594777 0.233594
5 0 7.485909 8.978811 6.607346 0.023811 -0.428287 -0.350090
6 1 5.884820 8.510585 8.001279 -0.104955 -0.437710 -0.030626
7 1 5.836020 7.500930 6.504250 0.074216 0.490334 0.069581
8 1 6.849778 5.877161 7.692948 0.012326 -0.561140 -0.143475
9 1 7.459306 6.927094 9.023962 -0.143600 -0.158329 -2.069732
10 1 8.971987 5.934655 6.726051 0.459012 -0.021100 -0.276107
11 1 9.584009 7.132291 7.928242 -0.604330 -0.168544 -0.543456
12 1 9.509496 8.635394 5.916013 1.381971 0.604894 0.217376
13 1 8.408980 7.666099 5.133724 -0.433780 -0.336046 -0.123895
14 1 7.008516 9.426735 5.709791 0.142805 0.275444 0.453998
15 1 7.869317 9.800264 7.292484 -0.533504 -0.835255 -0.461933
Energy
-81.931413100000
PlusStress: xx yy zz yz xz xy
0.000370 0.000881 0.001319 0.000089 0.000288 0.000136
Feature EFS_by vasp
Feature from database:p.cfg
Feature mindist 2.70
END_CFG

BEGIN_CFG
Size
15
Supercell
15.500000 0.000000 0.000000
0.000000 15.500000 0.000000
0.000000 0.000000 14.000000
AtomData: id type cartes_x cartes_y cartes_z fx fy fz
1 0 6.529134 7.811071 7.310760 -1.099969 0.425550 -0.618730
2 0 7.508477 6.771071 7.799454 -1.077056 -1.220297 -0.742304
3 0 8.815726 7.006062 7.100763 0.470449 0.186804 -1.081864
4 0 8.578370 8.206921 6.148240 0.977726 0.255714 -1.814934
5 0 7.333766 8.964207 6.660283 0.438320 -1.255334 0.020857
6 1 5.855032 8.141652 8.108786 -0.015841 0.220813 0.184882
7 1 5.847564 7.333086 6.586170 0.082755 0.290055 -0.324491
8 1 7.110223 5.733595 7.655405 0.216638 0.516181 -0.097898
9 1 7.528983 6.885496 8.836322 0.687662 0.088677 2.153126
10 1 9.095266 6.124529 6.480834 0.286655 0.332118 0.502701
11 1 9.596155 7.272813 7.804810 0.518490 -0.229070 0.274161
12 1 9.547379 8.810276 5.920502 -1.452689 -0.544110 0.691765
13 1 8.340554 7.790684 5.138165 -0.036486 0.103442 0.322964
14 1 6.737508 9.473132 5.899801 0.135990 0.172998 -0.220457
15 1 7.692187 9.679506 7.379041 -0.123723 0.664573 0.752893
Energy
-81.894631090000
PlusStress: xx yy zz yz xz xy
0.000070 0.000607 -0.000850 -0.000039 -0.000275 0.000504
Feature EFS_by vasp
Feature from database:p.cfg
Feature mindist 2.70
END_CFG

BEGIN_CFG
Size
15
Supercell
15.500000 0.000000 0.000000
0.000000 15.500000 0.000000
0.000000 0.000000 14.000000
AtomData: id type cartes_x cartes_y cartes_z fx fy fz
1 0 6.468963 7.689724 7.228237 -0.021329 -2.340257 0.885954
2 0 7.644939 6.687601 7.826653 -0.851652 1.613091 0.138759
3 0 8.900494 7.178777 7.004861 0.383434 0.005607 0.590685
4 0 8.440935 8.289276 6.076110 -1.650609 -1.034745 0.084299
5 0 7.293355 8.884184 6.852412 0.283301 1.528792 0.301524
6 1 5.641029 7.840259 7.959103 0.507592 0.128026 -0.132608
7 1 5.987380 7.124757 6.382160 0.407994 0.744402 0.122552
8 1 7.461533 5.609955 7.735530 -0.254772 0.053859 -0.217525
9 1 7.655652 6.916878 8.949719 0.543224 -0.272547 -1.249749
10 1 9.466792 6.420035 6.428931 -0.172066 -0.110402 0.570427
11 1 9.580631 7.735839 7.679446 0.222352 -0.682734 0.095219
12 1 9.210968 8.968324 5.860228 1.281922 1.157865 -0.487662
13 1 7.983253 7.931948 5.149448 0.280748 -0.315374 -0.451831
14 1 6.809268 9.690610 6.266979 -0.246932 -0.211264 0.263244
15 1 7.755973 9.363717 7.773346 -0.705827 -0.271644 -0.514560
Energy
-81.748068470000
PlusStress: xx yy zz yz xz xy
0.000408 0.000369 0.000944 0.000131 0.000063 -0.000075
Feature EFS_by vasp