BEGIN_CFG
Size
45
Supercell
19.750000 0.000000 0.000000
0.000000 18.500000 0.000000
0.000000 0.000000 14.750000
AtomData: id type cartes_x cartes_y cartes_z fx fy fz
1 0 9.127129 10.816920 8.194358 -0.116867 2.224678 -0.440461
2 0 10.188229 11.923920 8.537358 -0.024066 -0.621151 -0.933231
3 0 11.041229 12.282920 7.259458 -0.452712 -1.141619 0.152059
4 0 11.427229 10.967920 6.487058 0.775267 0.914505 2.053554
5 0 12.188229 10.019920 7.494358 -0.192820 -0.318134 -2.619173
6 0 12.680229 8.777520 6.658258 0.223272 0.041986 2.072905
7 0 12.818229 7.528920 7.605358 -0.540328 -0.537453 -1.784970
8 0 11.583229 6.588220 7.345758 0.299074 2.002164 1.139144
9 0 10.301229 7.411920 7.744358 0.076633 -3.076544 -0.476362
10 0 9.089029 6.406120 7.829358 -0.069790 2.118654 0.964798
11 0 7.846329 7.279820 8.239358 0.119038 -1.255956 -1.775315
12 0 7.172229 7.801920 6.912858 -0.496303 0.810341 1.725216
13 0 6.758029 9.309920 7.086358 0.673588 -0.739997 -1.634424
14 0 7.680629 10.205920 6.175458 -0.921033 1.104825 1.727380
15 0 8.194029 11.400920 7.063258 0.362149 -1.789682 -0.304959
16 1 9.610429 9.905920 7.853358 0.102667 -0.042521 -0.143019
17 1 8.554629 10.527920 9.077358 -0.177753 0.144332 0.291975
18 1 10.840229 11.580920 9.342358 0.286972 -0.144430 0.179585
19 1 9.702429 12.819920 8.928358 -0.272310 0.261790 0.007594
20 1 11.936229 12.833920 7.551358 0.380144 0.016394 0.147967
21 1 10.495229 12.960920 6.602058 -0.247529 0.182833 -0.146037
22 1 10.547229 10.470920 6.079158 -0.256302 -0.158961 0.039074
23 1 12.054229 11.191920 5.622958 0.375672 0.133752 -0.150198
24 1 13.032229 10.527920 7.961358 0.346777 0.251173 -0.035166
25 1 11.542229 9.715920 8.317358 -0.175890 -0.157019 -0.008809
26 1 11.979229 8.552120 5.852758 -0.276735 -0.037012 -0.126453
27 1 13.627229 9.006520 6.167558 0.324566 0.155654 -0.035917
28 1 13.744229 6.991320 7.394358 0.322167 -0.205455 -0.109972
29 1 12.878229 7.833220 8.651358 -0.164578 0.085728 0.285161
30 1 11.538229 6.266220 6.303958 0.030252 0.111431 -0.368542
31 1 11.659229 5.674720 7.936358 -0.080561 -0.216398 0.372762
32 1 10.446229 7.895420 8.711358 0.040000 -0.090659 0.364605
33 1 10.105229 8.211020 7.031958 -0.124647 0.032046 -0.371973
34 1 9.285629 5.621320 8.561358 0.245169 -0.101393 0.341741
35 1 8.929729 5.894820 6.879658 -0.121595 -0.012763 -0.347925
36 1 8.157529 8.108520 8.874358 0.219653 0.229469 0.057639
37 1 7.136129 6.703720 8.834358 -0.321399 -0.214166 0.073673
38 1 7.856629 7.688720 6.071558 0.273177 0.101994 -0.139673
39 1 6.305329 7.188820 6.656658 -0.245258 -0.231846 0.091852
40 1 6.842929 9.611920 8.130358 0.140098 -0.016057 0.204994
41 1 5.706629 9.462920 6.833058 -0.248125 0.045229 -0.239422
42 1 8.520329 9.630920 5.783158 0.312471 -0.120613 0.084892
43 1 7.139729 10.570920 5.300658 -0.270881 0.132778 -0.217737
44 1 8.737429 12.107920 6.438158 0.252495 0.128179 -0.127080
45 1 7.368829 11.969920 7.493358 -0.375933 -0.006593 0.163663
Energy
-245.690001370000
PlusStress: xx yy zz yz xz xy
-0.000549 0.001146 0.001507 0.000462 0.000036 -0.000066
Feature EFS_by vasp
Feature from database:p.cfg
Feature mindist 2.70
END_CFG

BEGIN_CFG
Size
45
Supercell
19.750000 0.000000 0.000000
0.000000 18.500000 0.000000
0.000000 0.000000 14.750000
AtomData: id type cartes_x cartes_y cartes_z fx fy fz
1 0 8.944132 11.121274 8.357362 0.588939 -0.598367 0.145878
2 0 10.250186 11.953320 8.602898 0.471167 0.249281 0.669894
3 0 11.261910 12.282451 7.433562 -0.321288 0.880895 0.512951
4 0 11.738709 11.117005 6.579736 -0.871117 -0.376831 -1.380204
5 0 12.208764 9.914200 7.342301 0.795266 0.092977 2.939174
6 0 12.760465 8.734836 6.588186 0.202082 -0.753673 -2.412434
7 0 12.909626 7.409773 7.372919 0.151930 1.199701 1.831986
8 0 11.719740 6.453054 7.639984 0.214756 -1.007259 -0.075256
9 0 10.373657 7.124593 7.975158 0.132869 2.148233 0.666468
10 0 9.042801 6.352402 7.899444 0.045040 0.164040 -0.364984
11 0 7.737376 7.218476 7.997644 0.058148 1.013896 1.311289
12 0 7.050494 7.815953 6.735794 -0.042214 -0.320359 -0.865751
13 0 6.458957 9.306826 6.737740 0.823961 -0.302403 0.118367
14 0 7.476972 10.397148 6.205300 1.077111 -0.892618 -0.040562
15 0 8.118707 11.477097 7.127937 -1.149207 0.929749 -0.626723
16 1 9.246465 10.042056 8.293076 -0.115180 0.513981 -0.050945
17 1 8.330839 11.175007 9.298257 0.310333 0.033375 -0.596688
18 1 10.779433 11.394390 9.430754 -0.064983 0.307165 -0.710539
19 1 10.044530 12.929120 9.116336 -0.264818 -0.370181 -0.467278
20 1 12.105027 12.899427 7.880455 -0.406855 -0.920049 -0.138421
21 1 10.852846 13.034610 6.717240 -0.352098 -0.293003 0.352718
22 1 10.820652 10.731311 5.961353 1.349735 0.729494 0.557106
23 1 12.515197 11.498251 5.855883 -0.542676 -0.388181 0.332637
24 1 13.010432 10.179858 8.114879 -0.380703 0.197648 -0.797860
25 1 11.409451 9.648099 8.086079 0.167172 -0.246982 -0.791021
26 1 12.117382 8.573507 5.663485 0.530634 0.047730 0.536324
27 1 13.791604 9.029183 6.189180 -1.022552 -0.332726 0.276799
28 1 13.819863 6.813798 7.130229 -0.454736 0.343508 -0.246585
29 1 13.128375 7.858449 8.398259 0.157034 -0.732986 -0.492577
30 1 11.597074 5.674120 6.835047 -0.005753 0.689497 0.143451
31 1 12.132008 5.852650 8.499008 -0.715409 0.145135 -0.313401
32 1 10.495769 7.658625 8.969703 -0.183715 -0.587170 -0.462849
33 1 10.254355 8.031345 7.296258 0.061374 -0.920155 0.227958
34 1 8.935771 5.581970 8.711890 0.434895 0.145133 -0.893007
35 1 9.143705 5.951264 6.869343 -0.629515 -0.775193 0.374023
36 1 7.958860 8.073399 8.689355 0.177892 -0.176816 -0.333942
37 1 7.020362 6.662450 8.645982 -0.009724 -0.009459 -0.634792
38 1 7.768201 7.715583 5.883886 -0.130851 0.319483 0.279572
39 1 6.238567 7.123419 6.406491 0.138886 0.274611 0.331663
40 1 6.176903 9.562052 7.792841 -0.261964 -0.112706 -0.687258
41 1 5.577784 9.295936 6.045046 0.315432 0.093973 0.741652
42 1 8.366519 9.796344 5.825977 -0.673863 0.509658 0.089510
43 1 7.116361 10.965457 5.305143 -0.150923 -0.548883 0.580454
44 1 8.671826 12.056759 6.374475 0.697228 0.016654 0.212985
45 1 7.366912 12.251953 7.400524 -0.163075 -0.387776 0.156441
Energy
-245.253138020000
PlusStress: xx yy zz yz xz xy
0.002671 0.002250 0.002400 -0.000290 0.000025 0.000180
Feature EFS_by vasp
Feature from database:p.cfg
Feature mindist 2.70
END_CFG

BEGIN_CFG
Size
45
Supercell
19.750000 0.000000 0.000000
0.000000 18.500000 0.000000
0.000000 0.000000 14.750000
AtomData: id type cartes_x cartes_y cartes_z fx fy fz
1 0 8.935674 11.195634 8.174273 0.065362 0.026036 -0.904772
2 0 10.078685 12.167746 8.544253 -0.379186 0.427026 -0.383051
3 0 11.432355 12.197693 7.761551 0.008225 -0.430050 -0.976081
4 0 11.921879 11.069965 6.759104 0.819215 0.177524 2.041405
5 0 12.455309 9.799042 7.409315 -0.168173 -0.627400 0.464656
6 0 12.632571 8.528880 6.576503 -0.160461 -0.373920 1.096867
7 0 12.825319 7.222543 7.411457 -0.177661 1.206076 -0.727206
8 0 11.507993 6.512605 7.550542 -0.138280 -1.520071 0.437727
9 0 10.274089 7.286773 7.947398 -0.044924 -1.113097 0.812288
10 0 9.045752 6.375596 7.857952 -0.923322 2.150271 -1.290986
11 0 7.782950 7.327030 7.966004 0.635820 -0.130322 -0.106096
12 0 7.258750 7.841493 6.561268 1.611600 -1.125464 0.259617
13 0 6.675767 9.217361 6.689697 0.081244 0.964018 -0.402181
14 0 7.502164 10.434280 6.171785 -0.522424 -0.072042 1.259688
15 0 7.731567 11.541584 7.232799 0.094470 0.906223 -0.425465
16 1 9.396382 10.376925 7.632089 0.440398 -0.558214 -0.003578
17 1 8.651151 10.768000 9.118790 -0.798274 -0.389414 0.546075
18 1 10.227029 12.019954 9.610161 0.554237 -0.263802 0.395940
19 1 9.721667 13.205533 8.526135 -0.260087 0.172846 -0.145155
20 1 12.220785 12.358862 8.479967 0.600456 -0.106374 0.623682
21 1 11.438150 13.142047 7.215155 -0.039823 0.169384 -0.492895
22 1 11.154750 10.705828 6.155220 -1.844096 -0.172330 -1.492775
23 1 12.719776 11.425146 6.118394 0.184526 0.674882 -0.419882
24 1 13.375950 9.925117 7.938754 1.240693 0.648159 0.338003
25 1 11.817344 9.541992 8.239731 -0.876287 -0.251161 0.545470
26 1 11.778979 8.352762 5.954522 -0.839107 0.031337 -0.785760
27 1 13.476274 8.549560 5.943248 1.240466 0.648660 -1.128942
28 1 13.597192 6.634691 6.910374 -0.076025 -0.516595 -0.172390
29 1 13.281720 7.482642 8.356361 0.046752 0.154166 0.834021
30 1 11.226621 5.958493 6.634335 0.342158 0.275331 -0.301755
31 1 11.591162 5.672613 8.275745 0.146339 0.149915 0.020563
32 1 10.318691 7.646059 8.965781 0.329902 0.207787 0.853855
33 1 10.101764 8.178306 7.387204 -0.104724 0.755850 -0.985671
34 1 9.104290 5.561857 8.558945 -0.151878 -0.582866 0.408036
35 1 9.068173 6.039895 6.808818 -0.219899 -0.739110 0.157640
36 1 8.134124 8.192092 8.567105 -0.127164 0.033240 -0.262260
37 1 6.953334 6.944146 8.590542 -0.004232 -0.319330 -0.400012
38 1 8.107926 7.915114 5.834550 -0.084778 -0.268265 0.427490
39 1 6.638224 7.030981 6.146888 -0.410527 0.330855 -0.033338
40 1 6.587040 9.339423 7.751493 -0.659221 0.508724 0.871868
41 1 5.714732 9.341564 6.222663 -0.935539 -0.273865 -0.077243
42 1 8.484980 10.119176 5.897818 1.051054 -0.479442 -0.514527
43 1 7.063701 10.869405 5.279470 -0.381711 0.100286 -0.367587
44 1 7.965847 12.436147 6.617558 0.278084 0.048880 0.331480
45 1 6.775297 11.847845 7.733212 0.553888 -0.441407 0.064805
Energy
-245.091815340000
PlusStress: xx yy zz yz xz xy
-0.000835 -0.000098 -0.000480 0.000204 -0.000185 -0.000516
Feature EFS_by vasp
Feature from database:p.cfg
Feature mindist 2.70
END_CFG

BEGIN_CFG
Size
45
Supercell
19.750000 0.000000 0.000000
0.000000 18.500000 0.000000
0.000000 0.000000 14.750000
AtomData: id type cartes_x cartes_y cartes_z fx fy fz
1 0 9.076989 10.959690 8.071358 0.481797 0.540738 0.161820
2 0 10.020703 12.180902 8.497151 0.459601 -1.042712 0.681886
3 0 11.453929 12.162453 7.782022 -0.395724 3.070798 1.133990
4 0 11.824734 11.016954 6.973711 0.391847 -3.342036 -1.021760
5 0 12.432762 9.767925 7.780902 -0.525571 0.158911 -1.183829
6 0 12.708675 8.625717 6.738169 0.046484 0.110533 0.068118
7 0 12.787394 7.216170 7.386558 1.253720 -0.152412 -1.404659
8 0 11.479057 6.391075 7.256030 0.521124 -0.542749 0.931597
9 0 10.270533 7.118828 7.829246 -1.444460 1.260427 -0.044933
10 0 8.895159 6.393510 8.044066 0.248144 -0.863361 0.428329
11 0 7.618093 7.294466 7.936131 1.073257 -0.119985 -0.338013
12 0 7.532244 8.051525 6.582483 -1.470762 0.397712 0.945175
13 0 6.616394 9.395545 6.611925 -0.641682 -1.733837 0.996682
14 0 7.347676 10.584139 6.087926 0.817944 1.535382 -0.939895
15 0 8.030076 11.553868 7.106718 -0.097232 -0.932303 -0.635589
16 1 9.634952 10.180688 7.476276 -0.231039 0.613941 0.767133
17 1 8.673924 10.410454 8.991371 0.128474 0.768480 -1.076589
18 1 10.154039 12.215731 9.623327 -0.058261 -0.202810 -0.948168
19 1 9.533843 13.153566 8.237653 0.112114 -0.616881 0.134430
20 1 12.274981 12.396773 8.553424 -0.967173 -0.164010 -0.873371
21 1 11.408426 13.044956 7.074784 0.291389 -0.402367 0.649375
22 1 10.908281 10.626976 6.371392 1.338581 0.461805 0.742883
23 1 12.572157 11.235090 6.176583 -0.167980 0.272928 0.365481
24 1 13.379763 10.047500 8.350035 -0.995945 -0.184946 -0.507098
25 1 11.653513 9.360070 8.492826 0.772465 0.533122 -0.338583
26 1 11.807009 8.563658 6.048669 0.964876 0.357190 0.261969
27 1 13.663464 8.792079 6.090794 -1.458071 0.098577 0.981117
28 1 13.476735 6.717248 6.673725 0.091700 -0.367665 0.410933
29 1 13.383458 7.245908 8.340857 -0.998557 -0.158632 -0.234711
30 1 11.377020 6.143561 6.168281 -0.303899 0.286817 0.510124
31 1 11.627383 5.400237 7.750479 -0.052734 0.331041 -0.070124
32 1 10.453209 7.586459 8.841639 0.410391 -0.245108 -0.842579
33 1 10.088421 7.988289 7.096914 0.165213 -0.836381 1.083455
34 1 8.889975 5.889507 9.067964 0.075105 0.645489 -0.766904
35 1 8.799045 5.504212 7.386568 -0.010018 0.329551 -0.307775
36 1 7.675487 8.048488 8.726558 -0.105256 0.102742 0.358495
37 1 6.760946 6.629884 8.139265 -0.127024 0.319335 -0.123655
38 1 8.541755 8.385116 6.332637 0.052833 -0.046077 -0.307293
39 1 7.185384 7.304242 5.849955 0.033413 0.384911 -0.328592
40 1 6.274936 9.598678 7.686863 0.323137 -0.339766 -1.015354
41 1 5.661960 9.306645 6.012779 0.747191 -0.434613 0.487847
42 1 8.103048 10.237526 5.305242 -0.666071 0.493081 0.620872
43 1 6.603524 11.241016 5.570654 0.453616 -0.283502 -0.097996
44 1 8.488187 12.379516 6.505922 -0.069362 -0.435943 0.311556
45 1 7.234749 12.013662 7.680870 -0.462853 0.381942 0.380761
Energy
-245.055506510000
PlusStress: xx yy zz yz xz xy
0.002431 0.001728 0.002933 -0.000278 0.000288 -0.000063
Feature EFS_by vasp
Feature from database:p.cfg
Feature mindist 2.70
END_CFG

BEGIN_CFG
Size
45
Supercell
19.750000 0.000000 0.000000
0.000000 18.500000 0.000000
0.000000 0.000000 14.750000
AtomData: id type cartes_x cartes_y cartes_z fx fy fz
1 0 8.940682 11.048489 7.974622 1.072427 0.451683 -0.953817
2 0 10.159623 11.752692 8.691844 -0.391460 0.487976 -1.699923
3 0 11.343101 12.276398 7.778651 -0.763709 -2.654731 -0.036303
4 0 12.094326 11.056680 7.030324 0.655277 1.420349 -0.141305
5 0 12.233291 9.717548 7.707957 -0.207935 0.993402 1.133094
6 0 12.900495 8.631208 6.933301 -1.708245 -1.328088 -1.024068
7 0 12.648583 7.132572 7.400661 1.297773 0.885909 0.118412
8 0 11.318296 6.390904 7.217846 1.185713 0.028385 -0.306986
9 0 10.226836 7.000095 8.030388 -0.707088 -0.629816 -0.143966
10 0 8.880798 6.395739 7.775359 -0.373024 -1.598059 -0.791013
11 0 7.704002 7.323230 7.906399 -0.185022 -0.113728 1.444091
12 0 7.683186 8.262519 6.753773 0.430244 -0.531158 -1.042216
13 0 6.673382 9.347351 6.695092 -0.402469 2.448471 -0.629241
14 0 7.138605 10.751505 5.985686 0.295785 -1.302169 1.795647
15 0 8.156744 11.670147 6.778947 -0.781169 0.770745 1.285183
16 1 9.316382 10.120295 7.581751 0.490584 -0.707485 -0.131935
17 1 8.275734 10.749923 8.746294 -1.047972 -0.252137 0.956355
18 1 10.595414 11.013828 9.355463 0.053946 -0.344589 0.451903
19 1 9.782969 12.562805 9.325473 0.002386 0.287703 0.038551
20 1 11.955606 12.869817 8.434953 0.826444 0.327725 0.175165
21 1 10.965694 12.877376 6.963811 -0.223346 0.667399 -0.222170
22 1 11.554375 10.868191 6.112165 -0.570976 -0.000967 -0.634041
23 1 13.090382 11.358320 6.653258 -0.002522 0.425083 0.198962
24 1 12.738677 9.881826 8.671980 -0.060519 -0.260286 0.272691
25 1 11.208133 9.483714 7.883058 -0.839304 -0.722799 0.744254
26 1 12.543979 8.698820 5.888612 0.099800 0.033133 -0.168263
27 1 13.939564 8.858832 6.912986 1.379022 -0.174077 -0.100979
28 1 13.454463 6.544901 6.937398 0.031013 -0.096901 -0.128480
29 1 12.918983 7.170249 8.460136 -0.069920 -0.355313 0.489523
30 1 11.020071 6.448231 6.146743 0.046881 -0.148718 0.237717
31 1 11.496770 5.320047 7.456126 -0.114702 0.206431 -0.082384
32 1 10.333004 7.000554 9.119877 0.682132 0.119022 0.151305
33 1 10.208574 7.997994 7.676437 -0.204341 1.466404 0.011129
34 1 8.755636 5.568348 8.458835 -0.147897 -0.555391 0.724747
35 1 8.802511 5.829526 6.795085 0.253711 0.789651 0.330009
36 1 7.823478 7.940162 8.841312 -0.295257 -0.532532 -0.243925
37 1 6.838488 6.640110 8.008860 -0.331450 0.652545 -0.029048
38 1 8.703857 8.672328 6.733903 -0.094895 -0.026393 -0.574261
39 1 7.492141 7.633644 5.867108 0.607906 0.081717 -0.273940
40 1 6.243055 9.576639 7.666632 0.076780 0.284274 0.644095
41 1 5.816952 8.960517 6.149506 -0.463671 0.094806 -0.450609
42 1 7.618051 10.533673 5.039663 0.049701 -0.392450 -0.563038
43 1 6.247693 11.340129 5.777873 -0.326377 0.105596 -0.098601
44 1 8.868290 12.029511 6.035406 0.219969 0.383781 -0.088992
45 1 7.590157 12.565183 7.206420 0.549586 -0.675467 -0.646104
Energy
-245.309812420000
PlusStress: xx yy zz yz xz xy
-0.000874 0.000343 -0.000193 0.000557 0.000292 0.000710
Feature EFS_by vasp
Feature from database:p.cfg
Feature mindist 2.70
END_CFG

BEGIN_CFG
Size
45
Supercell
19.750000 0.000000 0.000000
0.000000 18.500000 0.000000
0.000000 0.000000 14.750000
AtomData: id type cartes_x cartes_y cartes_z fx fy fz
1 0 8.980262 10.913378 7.846091 -0.677210 -1.624817 0.478255
2 0 10.058731 11.634299 8.579341 0.588154 0.852458 0.416358
3 0 11.304483 12.085272 7.772056 -0.488493 0.306035 0.780593
4 0 12.101630 10.998499 7.071483 0.502024 -0.667350 -0.253638
5 0 12.194413 9.621128 7.798419 -1.427170 0.905799 -1.858941
6 0 12.997691 8.588303 6.970336 0.586113 1.306522 0.978676
7 0 12.784690 7.247704 7.635685 0.655448 -0.614218 0.874548
8 0 11.406924 6.604650 7.262080 -0.209995 0.793401 0.619935
9 0 10.169264 6.677311 8.245540 0.180163 0.315225 -0.240058
10 0 8.779247 6.296066 7.539837 0.376402 -0.256467 1.684873
11 0 7.641243 7.354445 7.654671 0.863320 -0.246340 -0.689842
12 0 7.552271 8.428563 6.533994 -0.550293 -0.090042 0.917083
13 0 6.711166 9.703639 6.909564 -1.107834 -1.226435 0.755609
14 0 7.137086 10.873320 6.097086 0.054247 1.292158 -1.287781
15 0 8.304149 11.700817 6.707341 0.846567 -1.717386 -0.189288
16 1 9.344993 9.911966 7.449526 -0.222045 0.985317 0.409932
17 1 8.235892 10.617279 8.683414 0.753990 0.469379 -1.296294
18 1 10.353963 11.024430 9.480978 -0.074902 0.556104 -0.559555
19 1 9.598307 12.595582 8.930068 0.260745 -0.470079 0.285063
20 1 11.939017 12.564736 8.567955 -0.105370 -0.007778 -0.785976
21 1 10.962856 12.866648 7.041094 0.465364 -0.319493 0.443057
22 1 11.711422 10.693696 6.075577 -0.311246 0.487203 0.182155
23 1 13.079192 11.432284 6.826566 0.409682 -0.119666 0.068206
24 1 12.570822 9.648402 8.821029 0.135607 0.131098 0.274884
25 1 11.090643 9.382108 7.809122 0.998746 -0.502355 0.448078
26 1 12.735092 8.512116 5.918160 -0.342256 0.367917 -0.468933
27 1 14.044217 9.035516 7.002743 -0.541732 -1.031316 -0.044009
28 1 13.609336 6.547342 7.392612 -0.212499 0.043751 0.051591
29 1 12.907548 7.523502 8.706040 -0.229098 -0.831837 0.028740
30 1 11.169275 7.201033 6.387665 -0.676912 -0.018738 -0.692183
31 1 11.543588 5.575699 6.914204 0.004723 -0.192357 0.072822
32 1 10.345595 5.942575 9.064051 -0.055041 0.407043 -0.146397
33 1 10.115785 7.711762 8.728571 -0.004422 -1.070997 -0.532180
34 1 8.460319 5.325275 8.004664 -0.107456 0.647736 0.008896
35 1 8.983408 5.979589 6.546225 0.202873 0.024501 -1.511848
36 1 7.807292 7.771175 8.636878 -0.247110 0.658609 0.616969
37 1 6.660798 6.876476 7.649157 -0.219039 -0.342067 0.260850
38 1 8.533463 8.792846 6.185481 -0.055594 -0.358496 0.018378
39 1 7.054559 7.886767 5.714597 0.150188 0.348127 -0.381227
40 1 6.737199 9.934564 8.012007 0.102831 -0.367729 -0.793328
41 1 5.614348 9.589868 6.724787 0.451884 -0.554787 -0.042483
42 1 7.430975 10.489496 5.090417 -0.012645 0.210483 0.304254
43 1 6.239432 11.501883 5.875341 0.535741 0.069834 0.206214
44 1 9.090002 11.943927 5.944137 -0.612650 0.012015 0.361948
45 1 7.973941 12.593494 7.172399 -0.621119 1.437754 0.240398
Energy
-245.296949530000
PlusStress: xx yy zz yz xz xy
0.001321 0.000739 0.000900 0.000106 -0.000389 -0.000310
Feature EFS_by vasp
Feature from database:p.cfg
Feature mindist 2.70
END_CFG

BEGIN_CFG
Size
45
Supercell
19.750000 0.000000 0.000000
0.000000 18.500000 0.000000
0.000000 0.000000 14.750000
AtomData: id type cartes_x cartes_y cartes_z fx fy fz
1 0 9.161790 11.005834 7.943975 0.297756 1.431784 -0.235583
2 0 10.254761 11.927683 8.584674 0.102658 -0.757252 -1.021143
3 0 11.590223 12.131974 7.792436 -0.943949 1.836428 0.798680
4 0 12.018555 10.998890 6.948938 0.508064 -2.403663 -0.588812
5 0 12.307185 9.789468 7.940526 0.698111 0.567126 -0.106065
6 0 13.071567 8.529399 7.403683 0.471198 -0.508122 -1.376766
7 0 12.630221 7.008792 7.758978 0.081977 2.474550 0.878980
8 0 11.297894 6.692689 7.107555 -1.043138 -0.012522 -0.640015
9 0 10.077968 6.532707 8.087348 0.385083 0.252639 -0.807637
10 0 8.711214 6.260438 7.388963 0.399213 0.562881 -1.657785
11 0 7.592193 7.370376 7.594728 0.298319 -0.819990 -0.270106
12 0 7.510778 8.347563 6.389141 0.392344 -0.191316 0.316343
13 0 6.521636 9.513980 6.614964 0.813028 0.332935 -0.516898
14 0 7.057011 10.918374 6.254898 -0.345738 0.579713 -0.627584
15 0 8.304488 11.645784 6.846314 0.123659 0.717945 1.164242
16 1 9.584526 10.093226 7.588161 0.589188 -0.896844 -0.355293
17 1 8.565079 10.734678 8.767339 -1.268624 -0.548836 1.288932
18 1 10.502457 11.450114 9.527402 0.111103 -0.095369 0.539622
19 1 9.845126 12.916854 8.814656 -0.201548 0.111085 0.079543
20 1 12.324722 12.457316 8.580936 -0.037651 -0.401695 -0.696148
21 1 11.451136 13.015487 7.161683 0.015439 0.318116 -0.217913
22 1 11.192823 10.694001 6.217065 0.781192 0.316545 0.711038
23 1 12.912091 11.217693 6.291669 -0.526278 -0.069032 0.679131
24 1 12.849444 10.307159 8.819543 -0.225752 -1.016716 -1.011833
25 1 11.357058 9.518824 8.384807 -0.512073 -0.337001 0.095018
26 1 13.156997 8.494670 6.241906 -0.395567 0.477532 1.455954
27 1 14.110698 8.712354 7.706858 0.255185 -0.413602 0.089962
28 1 13.455045 6.362308 7.448828 0.056615 -0.161495 0.040317
29 1 12.512067 6.992626 8.864499 0.265921 -0.381588 -0.202628
30 1 11.163038 7.516446 6.336497 -0.492032 -0.875479 0.511174
31 1 11.300970 5.719619 6.560774 0.285939 0.424254 -0.013918
32 1 10.431072 5.796579 8.836908 -0.563229 -0.205192 -0.201871
33 1 9.876156 7.426066 8.654292 0.424451 0.897249 0.510405
34 1 8.349886 5.271757 7.657312 -0.308265 -0.335685 0.138776
35 1 8.902605 6.222529 6.232745 -0.277859 -0.115174 1.673525
36 1 7.745411 7.919077 8.563702 -0.003477 -0.225954 -0.610115
37 1 6.611709 6.843216 7.684873 0.307873 0.291422 0.045563
38 1 8.549804 8.690927 6.132460 -0.610003 0.033850 0.264515
39 1 7.169381 7.810490 5.474398 0.243762 -0.121822 0.415104
40 1 6.091092 9.533985 7.619321 0.036107 -0.228662 0.312350
41 1 5.697556 9.332250 5.904865 -0.223127 0.208651 0.289468
42 1 7.162356 10.952004 5.153509 0.208540 -0.192372 0.055845
43 1 6.208866 11.597053 6.392176 -0.261428 0.182607 0.213915
44 1 9.014491 11.841017 6.053523 0.179965 0.306394 -0.711975
45 1 8.038967 12.673611 7.279199 -0.091889 -1.008355 -0.699779
Energy
-245.215623560000
PlusStress: xx yy zz yz xz xy
0.001008 0.001451 0.001927 0.000365 0.000257 0.000436
Feature EFS_by vasp
Feature from database:p.cfg
Feature mindist 2.70
END_CFG

BEGIN_CFG
Size
45
Supercell
19.750000 0.000000 0.000000
0.000000 18.500000 0.000000
0.000000 0.000000 14.750000
AtomData: id type cartes_x cartes_y cartes_z fx fy fz
1 0 9.013167 11.136675 8.118323 -0.585152 -0.687587 0.700949
2 0 10.260368 11.972656 8.544951 -0.284183 -0.001217 0.162886
3 0 11.396645 12.012148 7.497098 -0.990973 -0.337716 -0.466774
4 0 12.160605 10.684957 7.210312 -0.157705 0.783974 0.265383
5 0 12.521268 9.641124 8.244005 -1.273059 0.313112 0.648236
6 0 13.221646 8.444378 7.608330 -0.070857 0.158757 0.886777
7 0 12.416597 7.172824 7.803405 0.149375 -0.967666 -0.572344
8 0 11.135141 6.867830 6.865862 0.280614 0.109234 2.128993
9 0 9.980345 6.616493 7.880818 -0.429623 0.095131 0.207143
10 0 8.568772 6.153375 7.344190 1.268238 0.513248 0.882544
11 0 7.556434 7.277561 7.294597 -0.589869 0.013676 0.378796
12 0 7.790193 8.479232 6.355251 0.083607 -0.498436 -0.542631
13 0 6.765084 9.547949 6.713357 0.280967 0.889103 0.359751
14 0 7.034580 11.024933 6.306015 -0.716187 -1.086048 -0.682900
15 0 8.277745 11.662022 6.842043 2.652103 0.353815 0.364033
16 1 9.339879 10.073917 7.911185 -0.320933 0.732030 0.476283
17 1 8.282331 11.135365 9.011149 0.830499 -0.210785 -1.046847
18 1 10.681094 11.619615 9.531710 -0.407810 -0.042592 -0.688556
19 1 9.907784 13.010927 8.777059 0.229606 -0.340123 -0.295027
20 1 11.985126 12.892182 7.701651 1.031434 0.213353 0.484408
21 1 10.961990 12.303584 6.506415 0.027404 -0.177275 0.418489
22 1 11.615203 10.180393 6.450518 -0.700310 -0.582400 -1.140340
23 1 13.129530 10.914830 6.783290 0.412915 0.470254 -0.592521
24 1 13.071206 10.205715 8.960964 1.273032 0.118943 1.045517
25 1 11.654879 9.287260 8.861700 0.133533 0.155287 -0.563014
26 1 13.257188 8.559563 6.565822 0.168458 0.658969 -1.994477
27 1 14.296804 8.383180 7.881450 -0.408656 -0.301532 0.389740
28 1 13.141802 6.338332 7.698563 -0.448693 -0.106515 0.108669
29 1 12.060701 7.197898 8.839886 0.002270 -0.394855 0.137420
30 1 10.786352 7.692261 6.266624 0.316453 0.804201 -0.572353
31 1 11.317610 6.026038 6.191192 0.047696 -0.225637 0.038426
32 1 10.339251 5.897580 8.626356 0.013640 -0.287514 0.052495
33 1 9.889741 7.570120 8.472753 -0.167415 -0.476491 -0.368060
34 1 8.229583 5.265929 7.943720 -0.004645 0.643308 -0.509725
35 1 8.759491 5.877586 6.338251 0.049845 -1.002704 -1.368816
36 1 7.442379 7.634856 8.336804 0.015124 0.283335 -0.122985
37 1 6.557519 6.883107 7.046796 -0.073410 -0.185562 -0.030875
38 1 8.827414 8.804584 6.361112 0.414871 0.422224 0.539525
39 1 7.689075 8.217684 5.281250 -0.291738 -0.356067 0.160763
40 1 6.759072 9.559561 7.813292 -0.563188 -0.090017 0.103509
41 1 5.800061 9.189135 6.311681 -0.072431 0.294787 0.332028
42 1 7.126166 11.046891 5.219283 -0.116619 0.039004 -0.509093
43 1 6.169571 11.684515 6.507763 -0.083604 -0.437767 0.265151
44 1 9.080552 11.719815 6.043985 -0.673475 -0.219541 0.464838
45 1 8.080098 12.698808 7.052767 -0.254886 0.953359 0.079644
Energy
-245.403934740000
PlusStress: xx yy zz yz xz xy
0.000846 0.000158 0.000274 0.000067 -0.000106 -0.000308
Feature EFS_by vasp
Feature from database:p.cfg
Feature mindist 2.70
END_CFG

BEGIN_CFG
Size
45
Supercell
19.750000 0.000000 0.000000
0.000000 18.500000 0.000000
0.000000 0.000000 14.750000
AtomData: id type cartes_x cartes_y cartes_z fx fy fz
1 0 8.857442 11.436941 8.122952 0.130407 0.602153 -0.786932
2 0 10.251078 11.935883 8.565444 0.271659 0.281424 -0.271500
3 0 11.447301 11.871177 7.561305 0.153725 0.735487 0.397119
4 0 11.955905 10.506396 7.048484 0.294045 -1.035146 0.780958
5 0 12.611958 9.649212 8.268301 0.362093 2.225047 -0.960762
6 0 13.323249 8.376176 7.855943 0.857385 -0.037568 -0.959056
7 0 12.427980 7.093971 7.780865 0.591243 0.903719 0.247292
8 0 11.044535 7.171619 7.127097 -1.358466 -0.339510 -0.365419
9 0 9.892596 6.433808 7.913284 0.359468 0.415084 0.181268
10 0 8.616495 6.106316 7.095105 0.660451 0.842591 -1.445319
11 0 7.432297 7.150946 6.819934 1.043509 -0.865480 -1.113617
12 0 7.864403 8.596015 6.508679 0.378076 0.428904 0.706756
13 0 6.842619 9.691921 6.959770 0.038420 -1.115858 -0.189341
14 0 7.013812 11.085525 6.383423 1.050315 0.366650 -0.809011
15 0 8.483113 11.615300 6.628056 -0.421254 0.526076 0.541552
16 1 8.711170 10.395754 8.361745 0.051927 -0.576564 0.370430
17 1 8.101387 12.025387 8.655907 -0.096759 -0.113443 0.483741
18 1 10.537388 11.495110 9.521359 0.006604 -0.515725 0.242034
19 1 10.090643 12.981026 8.856621 0.301466 0.402898 -0.231985
20 1 12.342780 12.440182 7.986715 -0.777715 -0.772299 0.067364
21 1 11.191937 12.569887 6.753350 -0.174989 -0.315039 -0.560839
22 1 11.167883 9.827319 6.552235 0.932704 1.256924 0.413780
23 1 12.786766 10.729494 6.316418 -0.675521 -0.420832 0.357898
24 1 13.318173 10.389350 8.759307 -0.210567 -0.671269 -0.456956
25 1 11.874617 9.510135 9.048616 -0.633397 -0.435712 0.278362
26 1 13.941303 8.604384 6.895415 -1.118931 -0.493846 0.984471
27 1 14.127397 8.127073 8.580229 -0.205272 0.147251 -0.011005
28 1 13.003880 6.365988 7.200400 0.128056 -0.354032 0.197353
29 1 12.385243 6.732727 8.832077 -0.301067 -0.035122 -0.344361
30 1 10.571281 8.174164 6.915889 1.070860 -0.539953 0.299125
31 1 11.175287 6.714514 6.119453 -0.403493 0.059066 0.220277
32 1 10.277614 5.507314 8.427805 -0.229160 0.483545 -0.568401
33 1 9.599511 7.104944 8.733688 0.091935 0.088434 0.315380
34 1 8.220124 5.223705 7.562730 -0.650549 -0.732322 -0.006304
35 1 9.023190 5.842493 6.072242 -0.507500 -0.193944 0.676510
36 1 6.635329 7.039677 7.544470 -0.137128 0.362989 0.813917
37 1 6.953658 6.775147 5.889239 0.013394 -0.088159 0.239203
38 1 8.860621 8.731652 6.972855 -0.374017 0.367407 0.318034
39 1 8.132185 8.718013 5.451724 -0.364683 -0.102618 -0.366768
40 1 6.842920 9.709437 8.063572 -0.319020 -0.095914 -0.131813
41 1 5.867653 9.342195 6.579554 -0.191561 -0.098291 0.446961
42 1 6.732072 10.963581 5.291220 0.550377 0.595504 0.689810
43 1 6.280771 11.783259 6.829931 0.071391 -0.122441 -0.032924
44 1 9.184868 11.042444 6.048445 0.412743 -0.551577 -0.635571
45 1 8.707840 12.680027 6.350648 -0.678440 -0.471459 -0.041373
Energy
-245.491327990000
PlusStress: xx yy zz yz xz xy
0.002347 0.001154 0.001314 -0.000260 0.000261 -0.000263
Feature EFS_by vasp
Feature from database:p.cfg
Feature mindist 2.70
END_CFG

BEGIN_CFG
Size
45
Supercell
19.750000 0.000000 0.000000
0.000000 18.500000 0.000000
0.000000 0.000000 14.750000
AtomData: id type cartes_x cartes_y cartes_z fx fy fz
1 0 9.003822 11.717202 8.188840 -1.029195 -1.520963 -1.019788
2 0 10.424515 12.203809 8.518786 0.092500 0.599670 0.463894
3 0 11.565835 11.921078 7.533881 -0.732941 0.387022 -0.156669
4 0 11.808224 10.460375 7.237143 1.775975 -0.247796 0.270724
5 0 12.622964 9.626896 8.269631 -0.718774 0.401416 0.757760
6 0 13.100813 8.225681 7.801081 0.250842 0.033121 1.236213
7 0 12.154021 7.043515 8.100106 1.654105 0.771797 0.377978
8 0 10.882809 7.358840 7.441493 -1.516499 -1.074034 -0.524428
9 0 9.822577 6.297362 7.651825 -1.222109 -0.315101 -0.613986
10 0 8.715518 6.165501 6.516357 0.209328 -1.462992 1.886617
11 0 7.565734 7.107083 6.795288 -0.720089 -0.485881 0.305616
12 0 7.970398 8.560492 6.580039 -0.894051 0.170507 -0.322661
13 0 6.795405 9.522802 6.832299 0.648502 0.771142 0.338935
14 0 7.138879 11.021680 6.471260 -0.890322 -0.635045 1.395371
15 0 8.553646 11.496126 6.682801 1.597886 -0.270776 -0.009587
16 1 8.762864 10.762206 8.722687 0.287660 0.363438 -0.135851
17 1 8.205783 12.401066 8.505585 0.250159 0.342572 0.558570
18 1 10.782263 11.793244 9.489439 -0.499883 -0.021086 -0.127363
19 1 10.377109 13.300036 8.707866 0.103648 -0.237321 -0.184192
20 1 12.464005 12.277756 8.004191 0.841083 0.522601 0.430044
21 1 11.466824 12.568705 6.626824 -0.134212 -0.643061 0.158260
22 1 10.950135 9.900009 7.068719 -2.097392 -0.666151 -0.544310
23 1 12.367138 10.388780 6.316367 0.447090 0.001845 -0.779107
24 1 13.501081 10.228780 8.498182 0.435419 0.162450 0.296215
25 1 12.016370 9.566112 9.237635 0.670255 -0.126593 -0.806254
26 1 13.253047 8.257245 6.725978 0.235721 0.008550 -0.538667
27 1 14.076563 7.994852 8.279351 -0.111910 0.239545 -0.209820
28 1 12.678153 6.130943 7.748143 -0.469524 -0.014748 0.006075
29 1 11.984963 6.942648 9.192517 0.191956 -0.040011 -0.142596
30 1 10.488620 8.256162 7.868998 -0.101591 0.942567 0.287541