BEGIN_CFG
Size
24
Supercell
16.750000 0.000000 0.000000
0.000000 16.750000 0.000000
0.000000 0.000000 15.250000
AtomData: id type cartes_x cartes_y cartes_z fx fy fz
1 0 6.848092 7.757233 8.062704 1.244064 -1.420788 -0.875371
2 0 7.138192 8.072533 6.519404 -1.922963 1.815943 2.272060
3 0 7.438292 9.591733 6.297104 0.638166 -0.131726 0.801783
4 0 8.548292 10.251733 7.252304 -0.125600 -1.907870 -1.915874
5 0 9.850292 9.362733 7.265504 -0.538426 0.984882 1.803844
6 0 9.912292 8.339933 8.470704 0.579617 -0.905504 -1.609267
7 0 9.393292 6.879333 8.205704 -1.010229 1.291898 2.937060
8 0 7.902992 6.780533 8.719704 0.440834 0.199206 -1.028089
9 1 5.895892 7.253233 8.216704 -0.505506 -0.182853 -0.368277
10 1 6.729792 8.656733 8.638704 0.312369 0.846491 0.344286
11 1 6.222392 7.771433 6.005504 -0.137036 0.207383 -0.478696
12 1 7.898092 7.467933 6.151604 1.705462 -1.244509 -0.670389
13 1 7.730992 9.791733 5.255204 0.072744 -0.144945 -0.076898
14 1 6.509792 10.135733 6.454704 -0.437718 0.290542 0.045995
15 1 8.712292 11.263733 6.874004 0.276148 0.169029 -0.110998
16 1 8.165992 10.345733 8.246704 -0.349600 0.070069 0.961655
17 1 10.712292 10.024733 7.396204 0.173930 0.278060 0.089292
18 1 10.007292 8.936733 6.285304 -0.029236 -0.703903 -0.436449
19 1 9.486292 8.716733 9.389704 -1.029723 0.486484 0.228794
20 1 10.928292 8.249733 8.844704 0.916343 -0.039643 -0.499205
21 1 9.958292 6.191833 8.882704 -0.091520 0.202820 -0.451258
22 1 9.495292 6.510833 7.209704 0.184118 -0.071078 -1.062124
23 1 7.873892 6.917233 9.806704 0.162889 0.069907 0.182131
24 1 7.641392 5.730133 8.548704 -0.523453 -0.161163 -0.087513
Energy
-130.842351850000
PlusStress: xx yy zz yz xz xy
0.000047 0.000932 0.000788 -0.000527 0.000218 -0.000013
Feature EFS_by vasp
Feature from database:p.cfg
Feature mindist 2.70
END_CFG

BEGIN_CFG
Size
24
Supercell
16.750000 0.000000 0.000000
0.000000 16.750000 0.000000
0.000000 0.000000 15.250000
AtomData: id type cartes_x cartes_y cartes_z fx fy fz
1 0 6.915430 7.609140 7.971167 -0.521826 0.770573 1.487819
2 0 7.073157 8.062643 6.498365 0.224491 -0.812554 -0.478866
3 0 7.330595 9.604304 6.389813 0.248516 -0.345316 -0.139944
4 0 8.465512 10.229494 7.294495 -1.722536 -0.169777 0.932197
5 0 9.808908 9.477484 7.391881 0.610370 0.179013 -1.957267
6 0 10.046967 8.437808 8.481490 0.359340 -0.569813 1.329731
7 0 9.443495 7.009200 8.303790 -0.757728 0.422792 -1.509921
8 0 7.942771 6.600930 8.511969 0.666190 0.513658 0.523655
9 1 5.955336 7.200189 8.373306 -0.169115 -0.109945 -1.313493
10 1 6.856169 8.566261 8.608851 0.801794 -0.983775 -0.486757
11 1 6.129074 7.848267 5.939751 0.457275 0.037274 0.117913
12 1 7.898086 7.387858 5.980792 -1.305447 1.419320 0.803855
13 1 7.496309 9.877639 5.324690 0.059592 -0.174542 0.215090
14 1 6.392878 10.149715 6.690708 0.447153 -0.438101 -0.221538
15 1 8.519701 11.270877 6.874607 0.414216 -0.512112 0.767243
16 1 7.929709 10.220547 8.310391 1.059295 0.615941 -0.809463
17 1 10.715414 10.126421 7.374012 -0.638584 0.358522 0.356118
18 1 9.885816 9.069851 6.335648 0.254100 -0.481144 0.845653
19 1 9.942517 8.900141 9.487496 -1.260692 0.026905 -0.060954
20 1 11.130776 8.260153 8.716079 -0.097349 -0.027258 -1.297880
21 1 10.082399 6.286099 8.784984 0.360414 -0.477872 0.445283
22 1 9.562127 6.822409 7.200541 0.347880 -0.005572 0.540932
23 1 7.685227 6.445301 9.588850 0.319280 0.009783 -0.349027
24 1 7.845569 5.589708 8.017562 -0.159711 0.744392 0.264399
Energy
-130.378621590000
PlusStress: xx yy zz yz xz xy
0.001497 0.001838 0.001683 -0.000091 -0.000037 -0.000079
Feature EFS_by vasp
Feature from database:p.cfg
Feature mindist 2.70
END_CFG

BEGIN_CFG
Size
24
Supercell
16.750000 0.000000 0.000000
0.000000 16.750000 0.000000
0.000000 0.000000 15.250000
AtomData: id type cartes_x cartes_y cartes_z fx fy fz
1 0 6.952209 7.530376 7.980613 -0.069849 -1.187848 0.067711
2 0 7.104232 8.103543 6.569576 -1.703012 -0.013215 0.378161
3 0 7.306918 9.596126 6.402522 0.619383 -0.381484 -0.075924
4 0 8.329471 10.189079 7.366295 -0.234344 -0.258728 -0.637366
5 0 9.726704 9.594748 7.459713 1.433206 -0.039228 0.475179
6 0 9.940695 8.452979 8.535930 -0.133138 -0.380461 -0.367930
7 0 9.550459 7.010407 8.060367 0.388393 -0.626513 0.233696
8 0 8.104367 6.575660 8.447523 0.580310 1.543380 -0.295605
9 1 6.015893 6.955256 8.125774 0.054438 0.114885 -0.338022
10 1 6.826265 8.354576 8.639510 0.095733 0.908651 1.143348
11 1 6.243440 7.853165 5.955158 -0.558811 -0.282026 -0.165094
12 1 7.868152 7.552013 6.137492 1.971216 -0.924960 -1.252917
13 1 7.676402 9.779024 5.384538 -0.071161 -0.006604 -0.287233
14 1 6.328742 10.105662 6.458821 0.179148 0.162579 0.285314
15 1 8.286542 11.246700 7.153500 0.519233 0.785380 0.215723
16 1 7.981075 10.006848 8.345122 -0.990054 0.395672 1.612725
17 1 10.480429 10.401709 7.698607 -0.696754 -0.383359 -0.002912
18 1 10.099018 9.209893 6.505496 -0.039747 -0.187609 -0.387557
19 1 9.358831 8.631944 9.458999 -0.095745 0.345785 -0.113318
20 1 10.991534 8.479875 8.895791 -0.175762 -0.091263 -0.408495
21 1 10.210461 6.194501 8.521886 -0.401964 1.070086 -0.400484
22 1 9.714210 6.910217 6.962652 -0.030584 0.110122 0.326132
23 1 8.141457 6.500178 9.537659 -0.419440 -0.019188 0.332730
24 1 7.946155 5.576683 8.072677 -0.217216 -0.664885 -0.341301
Energy
-130.969574530000
PlusStress: xx yy zz yz xz xy
0.000230 0.000321 -0.000370 -0.001074 0.000740 -0.000123
Feature EFS_by vasp
Feature from database:p.cfg
Feature mindist 2.70
END_CFG

BEGIN_CFG
Size
24
Supercell
16.750000 0.000000 0.000000
0.000000 16.750000 0.000000
0.000000 0.000000 15.250000
AtomData: id type cartes_x cartes_y cartes_z fx fy fz
1 0 7.011959 7.426797 7.969166 -1.625341 1.186626 1.073682
2 0 7.075542 8.042270 6.586709 1.346591 -2.506657 -2.173817
3 0 7.298755 9.517643 6.442650 -0.426691 0.401832 0.342306
4 0 8.206508 10.190367 7.482797 0.257399 1.159913 0.103045
5 0 9.700078 9.751361 7.620785 -0.854556 -1.102036 -0.998376
6 0 9.950512 8.513325 8.507798 0.082723 -1.224663 0.158873
7 0 9.617745 7.067618 7.944419 -1.703134 1.018464 -0.208612
8 0 8.142506 6.525721 8.286082 2.744133 -0.773173 -0.086567
9 1 6.060545 6.811023 8.024507 0.607074 0.853229 0.466613
10 1 7.022747 8.295669 8.725964 -0.520015 -1.233447 -0.613324
11 1 6.194584 7.713251 5.981595 0.289378 0.338117 0.248383
12 1 7.949154 7.442447 6.090435 -1.139356 1.069189 0.268127
13 1 7.623577 9.807714 5.416421 0.001374 -0.322594 0.344635
14 1 6.291915 9.964667 6.557169 0.138162 0.328052 -0.001482
15 1 8.228935 11.240403 7.070765 0.045230 -0.363706 0.790221
16 1 7.720590 10.228821 8.528245 0.576703 -0.011266 -1.284435
17 1 10.223440 10.540161 8.145346 0.337375 0.667211 -0.077491
18 1 10.164532 9.596567 6.576948 -0.451398 0.275376 1.222454
19 1 9.313301 8.646447 9.474483 1.478373 -0.116976 -0.978933
20 1 11.087849 8.470084 8.636590 -1.273041 0.242880 0.631679
21 1 10.250269 6.323366 8.374494 0.894262 -0.534578 0.687116
22 1 9.856503 7.016508 6.875109 -0.161666 0.187792 -0.287735
23 1 8.287999 6.359835 9.369961 -0.716961 -0.232469 -0.004405
24 1 8.030173 5.515265 7.791037 0.072694 0.699139 0.363977
Energy
-130.678900990000
PlusStress: xx yy zz yz xz xy
0.001627 0.000811 0.001141 0.000530 -0.000644 0.000351
Feature EFS_by vasp
Feature from database:p.cfg
Feature mindist 2.70
END_CFG

BEGIN_CFG
Size
24
Supercell
16.750000 0.000000 0.000000
0.000000 16.750000 0.000000
0.000000 0.000000 15.250000
AtomData: id type cartes_x cartes_y cartes_z fx fy fz
1 0 7.092823 7.324898 7.857756 0.200368 -0.811090 -1.058072
2 0 7.011118 7.991854 6.474221 -0.087423 0.894303 1.572511
3 0 7.250587 9.536044 6.562404 -0.785921 -0.300600 -1.431819
4 0 8.112149 10.185636 7.616544 -0.182326 0.804913 0.174342
5 0 9.564019 9.735688 7.705655 0.411551 1.270695 0.712162
6 0 9.982520 8.547854 8.546965 -1.968947 -0.580582 -2.221389
7 0 9.677991 7.199280 7.930589 0.705456 -2.189030 -1.558125
8 0 8.320312 6.505188 8.180763 1.278472 0.432175 0.774244
9 1 6.211180 6.737023 8.017370 -0.785273 -0.582865 0.316009
10 1 7.088804 8.104224 8.551359 -0.380244 1.450548 1.577745
11 1 6.041615 7.825911 6.010152 -0.355374 -0.077431 -0.103825
12 1 7.730481 7.562706 5.824549 0.979701 -0.558184 -0.908865
13 1 7.685103 9.743319 5.581762 0.166709 0.525644 -0.362762
14 1 6.272815 10.072094 6.551803 0.232311 -0.286484 0.102921
15 1 8.146868 11.275689 7.357554 -0.128129 -0.479878 0.022509
16 1 7.550562 10.180769 8.551112 0.158301 -0.150470 0.694712
17 1 10.188094 10.649444 7.994283 -0.497142 -0.990353 -0.335888
18 1 9.790599 9.451360 6.699676 0.776286 0.125875 -1.180293
19 1 9.450602 8.513259 9.435667 -0.606888 0.422567 2.600606
20 1 11.010170 8.516375 8.630956 2.467336 0.509117 0.810317
21 1 10.493523 6.459978 8.283667 -1.008820 0.768528 -0.403709
22 1 9.783777 7.187867 6.809177 0.349824 0.402490 0.506828
23 1 8.414928 6.246364 9.247565 -0.804126 -0.023176 0.259986
24 1 8.351935 5.549855 7.678144 -0.122490 -0.582180 -0.551336
Energy
-130.627565630000
PlusStress: xx yy zz yz xz xy
-0.000731 -0.000128 -0.001502 -0.000142 0.000912 -0.000102
Feature EFS_by vasp
Feature from database:p.cfg
Feature mindist 2.70
END_CFG

BEGIN_CFG
Size
24
Supercell
16.750000 0.000000 0.000000
0.000000 16.750000 0.000000
0.000000 0.000000 15.250000
AtomData: id type cartes_x cartes_y cartes_z fx fy fz
1 0 7.110109 7.186859 7.838949 -0.792813 0.507483 0.630942
2 0 7.153725 8.015953 6.473946 0.334451 0.029299 0.820392
3 0 7.087853 9.582297 6.612865 1.434019 -0.800809 -0.286903
4 0 8.038594 10.143709 7.716293 -1.693962 0.227364 -0.188738
5 0 9.516502 9.851799 7.726255 0.051471 -0.848691 0.055888
6 0 9.911295 8.594342 8.507634 0.973081 -1.202771 -0.236972
7 0 9.726641 7.217224 7.834383 -0.619626 -0.087520 -0.045714
8 0 8.444288 6.445785 8.087888 -0.185891 -1.006449 1.001673
9 1 6.221767 6.456542 7.861671 1.119074 0.766857 -0.166976
10 1 6.914768 7.866805 8.770314 0.254244 -0.750473 -1.543406
11 1 6.347081 7.677364 5.791349 0.345218 0.037778 0.123415
12 1 8.160184 7.786176 6.013689 -1.025943 0.101817 0.034658
13 1 7.413442 9.969240 5.608677 -0.195859 0.009007 0.571742
14 1 6.069761 9.934930 6.764888 -0.366282 0.064549 0.220678
15 1 7.937349 11.222591 7.762060 -0.154714 0.797236 -0.672112
16 1 7.611236 9.954313 8.727009 0.179599 -0.630801 -0.209388
17 1 9.856168 10.639412 8.358717 0.992669 1.091669 0.394989
18 1 10.045558 9.944173 6.726351 -0.575864 -0.234027 0.805211
19 1 9.426957 8.519365 9.557643 0.860602 0.473314 -1.283400
20 1 11.046657 8.532108 8.541864 -0.910789 0.942136 0.768206
21 1 10.574345 6.649393 8.211909 0.095714 -0.725322 -0.041932
22 1 9.817925 7.220131 6.753673 0.597401 0.588184 -0.587957
23 1 8.534452 6.099821 9.138392 -0.539205 0.191001 0.103089
24 1 8.503796 5.465425 7.557656 -0.174483 0.465118 -0.265181
Energy
-130.658240030000
PlusStress: xx yy zz yz xz xy
0.000961 0.000287 0.001729 0.000039 -0.000399 -0.000039
Feature EFS_by vasp
Feature from database:p.cfg
Feature mindist 2.70
END_CFG

BEGIN_CFG
Size
24
Supercell
16.750000 0.000000 0.000000
0.000000 16.750000 0.000000
0.000000 0.000000 15.250000
AtomData: id type cartes_x cartes_y cartes_z fx fy fz
1 0 7.218470 7.131153 7.685115 0.769324 0.932952 -0.721731
2 0 7.199870 8.061916 6.457100 0.283489 -0.263339 0.243682
3 0 6.971523 9.541043 6.738175 -0.819388 -0.013185 1.417615
4 0 7.906556 10.147501 7.841121 -1.135016 0.816885 -0.496874
5 0 9.396508 9.815405 7.775400 0.751295 1.998038 1.112051
6 0 9.933472 8.601078 8.494408 -0.068444 -0.382896 0.482401
7 0 9.854020 7.260437 7.791665 -1.368355 -1.080734 0.113023
8 0 8.520837 6.452503 8.018892 1.489638 -0.813666 -0.084207
9 1 6.428761 6.434217 7.653457 -1.124288 -1.302416 -0.305189
10 1 6.983961 7.693675 8.543514 -0.512603 1.262509 1.353528
11 1 6.521453 7.677092 5.687253 -0.185793 0.092434 -0.097001
12 1 8.192571 8.040573 6.016317 0.413807 -0.262472 -0.452249
13 1 7.070053 10.055444 5.790172 0.148426 0.539977 -0.405836
14 1 5.920216 9.738220 7.109285 0.611002 -0.205545 -0.419231
15 1 7.697133 11.268506 7.821128 0.606109 -0.871250 -0.229148
16 1 7.478964 9.908747 8.833121 0.267229 -0.393995 -0.013348
17 1 9.935379 10.656848 8.344992 -0.640301 -0.524981 -0.836306
18 1 9.801943 9.858861 6.757631 -0.096132 0.019287 -0.278562
19 1 9.486652 8.587645 9.539945 0.451050 -0.267385 -0.808107
20 1 11.020046 8.715934 8.593563 0.120973 0.555049 0.367367
21 1 10.706081 6.671928 8.175382 -0.240992 -0.307285 -0.208941
22 1 9.972757 7.335217 6.690376 0.297961 0.297119 0.290556
23 1 8.490147 6.123298 9.067947 -0.008613 0.116106 0.221503
24 1 8.628205 5.495075 7.477772 -0.008798 0.059961 -0.247149
Energy
-131.048921380000
PlusStress: xx yy zz yz xz xy
0.000493 -0.000465 0.000344 0.000186 0.000046 -0.000032
Feature EFS_by vasp
Feature from database:p.cfg
Feature mindist 2.70
END_CFG

BEGIN_CFG
Size
24
Supercell
16.750000 0.000000 0.000000
0.000000 16.750000 0.000000
0.000000 0.000000 15.250000
AtomData: id type cartes_x cartes_y cartes_z fx fy fz
1 0 7.299138 7.098835 7.574482 -1.651244 -1.050295 2.183147
2 0 7.225048 8.065919 6.435937 -0.638458 -0.478400 -1.832316
3 0 6.949580 9.489895 6.888965 1.344326 0.236061 -2.268696
4 0 7.772804 10.058635 7.996273 -0.158831 -0.339181 0.929081
5 0 9.246032 9.857975 7.813557 2.049996 -0.702119 -1.363449
6 0 9.967404 8.677783 8.512287 0.307180 0.069325 1.141084
7 0 9.883153 7.331973 7.782584 1.043541 -0.942774 0.437008
8 0 8.635404 6.442891 7.842228 0.658320 -0.059583 0.784480
9 1 6.474502 6.285189 7.518590 1.087472 0.985853 -0.017093
10 1 7.035496 7.660122 8.553805 0.183046 -0.656033 -1.226741
11 1 6.421289 7.779744 5.712564 -0.114110 0.077309 0.543853
12 1 8.068525 7.932856 5.706335 0.132920 0.511217 0.846851
13 1 7.269298 10.162380 6.033989 -0.683840 -0.511306 0.230919
14 1 5.906908 9.668847 7.051114 -1.036746 0.013265 0.203667
15 1 7.521248 11.099594 7.849085 0.153790 0.903897 0.832951
16 1 7.473748 9.721354 9.016187 -0.046202 0.246252 -0.312514
17 1 9.794010 10.743910 8.044948 0.409676 1.122106 0.764327
18 1 9.517555 9.783322 6.719517 -0.484198 -0.128854 0.426895
19 1 9.664336 8.725178 9.585790 -0.788683 -0.775655 -0.261463
20 1 11.061072 8.791672 8.791550 -0.521110 0.674438 -1.222888
21 1 10.672893 6.629854 8.222081 -0.436087 0.872082 -0.549274
22 1 10.176582 7.480507 6.720442 0.013683 0.178409 0.280107
23 1 8.683196 6.032042 8.882074 -0.527053 -0.097389 -0.486404
24 1 8.866238 5.610104 7.160049 -0.301381 -0.149083 -0.068485
Energy
-130.556908320000
PlusStress: xx yy zz yz xz xy
-0.000080 -0.000214 0.001014 0.000060 -0.000017 -0.000542
Feature EFS_by vasp
Feature from database:p.cfg
Feature mindist 2.70
END_CFG

BEGIN_CFG
Size
24
Supercell
16.750000 0.000000 0.000000
0.000000 16.750000 0.000000
0.000000 0.000000 15.250000
AtomData: id type cartes_x cartes_y cartes_z fx fy fz
1 0 7.353917 7.042891 7.556082 0.362859 -1.015269 0.320628
2 0 7.193344 8.028053 6.455626 0.257712 0.445477 -1.309215
3 0 6.842025 9.444000 6.891351 0.177398 -0.915614 0.864033
4 0 7.735926 9.986916 8.041703 -0.954635 1.489052 -0.568391
5 0 9.255515 9.973671 7.983797 1.304341 -0.029015 0.305437
6 0 9.904965 8.691699 8.505884 -0.732012 -0.429277 0.905563
7 0 9.957064 7.425666 7.627729 -1.743387 0.545851 0.080262
8 0 8.752982 6.434312 7.740884 0.871827 1.161857 -0.369810
9 1 6.779753 6.164983 7.381528 -1.215984 -0.927063 -0.280256
10 1 6.960565 7.438466 8.483076 0.018144 0.258167 0.654774
11 1 6.463239 7.774658 5.686839 -0.550493 -0.548377 -0.017995
12 1 8.116387 7.960519 5.872417 0.414728 0.600501 -0.185899
13 1 6.964443 10.099130 6.050078 -0.073268 0.622767 -0.771665
14 1 5.727628 9.410948 7.142219 1.168225 0.430837 0.173454
15 1 7.430903 11.073240 8.073823 0.100917 -0.689153 0.564315
16 1 7.506257 9.486624 8.990394 -0.401095 0.220575 0.175774
17 1 9.656849 10.778934 8.646663 -0.515171 -0.215354 0.022645
18 1 9.787374 10.225696 7.069846 -0.467333 0.139828 -1.031195
19 1 9.433682 8.566995 9.500449 -0.555227 -0.837909 -0.121813
20 1 10.876654 8.883229 8.915411 1.374192 0.487614 -0.400355
21 1 10.790665 6.836336 7.877700 1.602969 -0.797112 0.569763
22 1 10.141339 7.727779 6.595325 -0.118363 0.152080 -0.417351
23 1 8.807145 6.060263 8.752749 -0.012892 -0.556802 0.612109
24 1 8.957725 5.579226 7.049161 -0.312766 0.408085 0.224924
Energy
-130.778184270000
PlusStress: xx yy zz yz xz xy
-0.000114 -0.000161 -0.000761 0.000611 0.000025 -0.000144
Feature EFS_by vasp
Feature from database:p.cfg
Feature mindist 2.70
END_CFG

BEGIN_CFG
Size
24
Supercell
16.750000 0.000000 0.000000
0.000000 16.750000 0.000000
0.000000 0.000000 15.250000
AtomData: id type cartes_x cartes_y cartes_z fx fy fz
1 0 7.451451 6.934084 7.562271 -1.099670 -0.439071 0.315635
2 0 7.170406 7.998320 6.456107 0.521691 -0.032334 -0.673314
3 0 6.865402 9.460936 6.886538 1.497313 -0.101128 -0.724956
4 0 7.604591 9.966789 8.146025 -0.087550 -0.727823 -0.653444
5 0 9.130286 10.010670 8.111143 1.298967 -1.501120 -0.379843
6 0 9.888556 8.658477 8.526700 0.957660 2.046336 1.351826
7 0 9.990697 7.563382 7.533362 0.573577 -2.192912 -0.955362
8 0 8.895724 6.436702 7.637211 0.890635 0.826232 0.382312
9 1 6.895549 5.949109 7.426448 -0.124861 1.228577 0.023227
10 1 7.100663 7.393136 8.517522 0.226126 -0.564706 -0.132308
11 1 6.298569 7.726826 5.776414 1.221833 -0.130013 0.372729
12 1 8.162973 8.107573 5.912056 -1.274153 -0.452979 -0.243236
13 1 7.098340 10.082612 5.956804 -0.142978 -0.312940 1.042377
14 1 5.817775 9.574740 7.049310 -1.212235 0.136589 0.296864
15 1 7.216261 10.951737 8.323470 -0.263502 0.899442 0.360315
16 1 7.252761 9.320040 8.976368 0.221114 0.315142 0.073540
17 1 9.551704 10.737191 8.824899 -0.347498 0.246509 -0.174146
18 1 9.560928 10.232177 7.088799 -0.581799 0.246341 0.645324
19 1 9.457650 8.328274 9.498343 0.117847 -0.086747 -0.246608
20 1 10.949669 9.006255 8.782759 -1.033761 -0.311892 -0.172103
21 1 11.024442 6.983274 7.528531 -1.635813 1.241820 0.129380
22 1 9.870385 7.990613 6.500235 0.429059 -0.230163 0.519952
23 1 9.046434 5.752422 8.545207 -0.087244 0.772027 -1.073068
24 1 9.079999 5.905200 6.704275 -0.054384 -0.871273 -0.086812
Energy
-130.758826770000
PlusStress: xx yy zz yz xz xy
0.001449 0.001125 0.001014 -0.000967 0.000114 -0.000108
Feature EFS_by vasp
Feature from database:p.cfg
Feature mindist 2.70
END_CFG

BEGIN_CFG
Size
24
Supercell
16.750000 0.000000 0.000000
0.000000 16.750000 0.000000
0.000000 0.000000 15.250000
AtomData: id type cartes_x cartes_y cartes_z fx fy fz
1 0 7.520226 6.952344 7.520961 1.002144 -0.008230 -1.092498
2 0 7.123723 7.922578 6.323497 0.556544 1.683460 3.749241
3 0 6.789986 9.384552 6.961956 -1.031629 -1.103045 0.955851
4 0 7.523176 9.903688 8.271973 -0.953217 0.562128 -0.867141
5 0 9.055024 9.977159 8.208929 0.492043 -1.287417 0.976554
6 0 9.939841 8.724059 8.605753 -1.144676 -0.199537 -0.007053
7 0 10.060015 7.637095 7.506451 -2.179046 0.720159 -0.149565
8 0 9.023383 6.490442 7.439455 -0.404063 1.779658 -0.754898
9 1 6.944005 6.032757 7.410483 -0.375162 -0.219731 0.148978
10 1 7.234745 7.427693 8.498556 0.448402 -0.482825 -0.602507
11 1 6.199862 7.549368 5.975666 -1.034360 -0.349195 -1.198839
12 1 7.901766 8.063196 5.584843 0.216060 -0.359656 -0.458580
13 1 6.898309 10.128520 6.199084 0.231051 0.701721 -0.770593
14 1 5.669769 9.398677 7.210043 1.130756 -0.088745 -0.232054
15 1 7.151490 10.983631 8.415651 0.315401 -1.170321 -0.245354
16 1 7.099857 9.370904 9.162869 0.626218 0.127577 -0.341881
17 1 9.372666 10.693114 8.973934 0.039929 0.598930 -0.233111
18 1 9.425672 10.246663 7.212758 -0.204811 0.534014 -0.096102
19 1 9.542655 8.341700 9.617221 0.734641 0.181226 -1.159827
20 1 10.951895 9.138320 8.718526 0.032635 -0.054096 0.422498
21 1 10.999184 7.179605 7.498327 1.964892 -0.814002 0.327630
22 1 10.004100 8.100077 6.508610 0.076084 0.550224 0.028466
23 1 9.267669 5.818071 8.221013 0.038726 -1.170875 1.003989
24 1 9.260886 6.018623 6.448652 -0.592174 -0.141435 0.602090
Energy
-130.686600910000
PlusStress: xx yy zz yz xz xy
0.000762 0.000674 0.001533 0.000786 -0.000666 -0.000351
Feature EFS_by vasp
Feature from database:p.cfg
Feature mindist 2.70
END_CFG

BEGIN_CFG
Size
24
Supercell
16.750000 0.000000 0.000000
0.000000 16.750000 0.000000
0.000000 0.000000 15.250000
AtomData: id type cartes_x cartes_y cartes_z fx fy fz
1 0 7.590662 6.858395 7.388773 1.058097 -0.294922 -1.116819
2 0 7.250924 7.996649 6.397841 -1.343169 0.247167 0.185822
3 0 6.753855 9.293473 7.099950 0.510004 1.368644 -0.685451
4 0 7.453486 9.816133 8.392687 0.412458 -0.998985 -1.134957
5 0 8.980151 10.050619 8.270415 -0.122768 -1.151821 0.178721
6 0 9.814904 8.762157 8.518617 0.900449 0.848251 -1.715356
7 0 10.098017 7.752219 7.377830 0.778151 -1.112612 -0.005704
8 0 9.095172 6.529049 7.389759 1.389749 -0.554612 1.804447
9 1 7.043871 5.918196 7.150252 0.175863 0.354231 -0.120955
10 1 7.271945 7.092989 8.391616 -0.203376 0.395830 0.654065
11 1 6.360870 7.604890 5.820109 0.841133 0.612540 -0.038129
12 1 8.042445 8.323620 5.698512 0.025078 -0.760541 0.109519
13 1 6.714027 10.160199 6.348982 0.191204 -0.964623 0.601674
14 1 5.725864 9.104820 7.321006 -1.162855 0.003843 0.529817
15 1 6.967863 10.693744 8.766667 -0.516048 1.149055 -0.195551
16 1 7.189151 9.115043 9.188081 0.484782 -0.492800 0.378126
17 1 9.285853 10.756494 9.054897 0.056025 0.305991 -0.277120
18 1 9.272290 10.368986 7.265673 -0.191499 0.753820 -0.097593
19 1 9.225050 8.219759 9.189079 -0.479090 -1.085528 1.906096
20 1 10.798638 9.044795 8.923947 -0.231665 -0.009159 0.339522
21 1 11.233526 7.441687 7.424945 -1.938025 -0.073302 0.275432
22 1 10.067472 8.053633 6.323503 -0.220711 1.047260 0.011384
23 1 9.308846 5.842371 8.302215 -0.173248 0.898102 -1.097962
24 1 9.395253 5.947635 6.524063 -0.228336 -0.484551 -0.489918
Energy
-130.642897190000
PlusStress: xx yy zz yz xz xy
0.001173 0.000425 0.000357 0.000187 -0.000006 0.000595
Feature EFS_by vasp
Feature from database:p.cfg
Feature mindist 2.70
END_CFG

BEGIN_CFG
Size
24
Supercell
16.750000 0.000000 0.000000
0.000000 16.750000 0.000000
0.000000 0.000000 15.250000
AtomData: id type cartes_x cartes_y cartes_z fx fy fz
1 0 7.664802 6.854792 7.269648 -0.794145 0.109296 1.753872
2 0 7.246180 8.091677 6.455531 1.562010 0.083833 -0.994718
3 0 6.580278 9.206794 7.176608 -1.596660 -1.331702 1.858487
4 0 7.339040 9.691907 8.408478 -0.648254 0.307502 1.438637
5 0 8.845356 9.998238 8.302566 1.501249 -1.304406 -0.223500
6 0 10.003011 8.781308 8.565928 -3.140544 0.465000 -0.306162
7 0 10.179415 7.802280 7.377008 -1.471000 0.463146 -0.412524
8 0 9.164314 6.601755 7.290530 0.899248 1.262689 -2.631810
9 1 7.216468 5.940764 6.846814 -0.159566 0.124506 -0.019059
10 1 7.220227 6.892899 8.349047 0.678225 0.157598 -1.434603
11 1 6.660902 7.781954 5.597931 -0.468608 -0.124233 -0.405172
12 1 8.135014 8.591683 6.002881 0.050907 -0.652104 -0.020395
13 1 6.327393 10.022471 6.544360 -0.144599 0.919001 -0.998371
14 1 5.589317 8.745473 7.507098 0.595744 0.860357 0.039217
15 1 6.857458 10.634619 8.811385 0.222726 -0.535878 -0.587527
16 1 7.080893 8.986921 9.243824 0.658422 0.146411 -0.315085
17 1 9.053407 10.778572 9.052272 0.227142 -0.008536 -0.184227
18 1 9.067977 10.392186 7.279880 -0.044182 0.086064 0.503277
19 1 9.618559 8.283784 9.530938 0.936086 0.353843 -1.110594
20 1 10.973956 9.240635 8.665818 0.365486 0.596984 0.643345
21 1 11.174280 7.411497 7.432042 0.916515 -0.785189 0.274952
22 1 10.253476 8.375667 6.396934 -0.493337 -0.266318 0.832500
23 1 9.478722 5.901037 7.995137 0.231550 -1.409166 1.754940
24 1 9.372381 6.068341 6.311958 0.105694 0.484950 0.540972
Energy
-130.631813590000
PlusStress: xx yy zz yz xz xy
0.000929 0.000776 0.000870 -0.000030 -0.000584 0.000335
Feature EFS_by vasp
Feature from database:p.cfg
Feature mindist 2.70
END_CFG

BEGIN_CFG
Size
24
Supercell
16.750000 0.000000 0.000000
0.000000 16.750000 0.000000
0.000000 0.000000 15.250000
AtomData: id type cartes_x cartes_y cartes_z fx fy fz
1 0 7.795097 6.921782 7.141465 0.891246 -1.987251 -1.218286
2 0 7.232000 8.095999 6.404166 -0.745918 0.449713 -1.907580
3 0 6.536732 9.144469 7.310838 1.051676 1.828377 -1.268603
4 0 7.323419 9.528569 8.579036 -0.094490 -0.818273 -0.003116
5 0 8.763050 9.956861 8.310259 1.256199 0.305464 -0.948461
6 0 9.848792 8.874965 8.588708 0.708165 0.094300 0.478071
7 0 10.201029 7.890656 7.380276 0.362514 -0.422590 1.009168
8 0 9.309435 6.625134 7.146380 0.927913 0.162009 2.037821
9 1 7.333530 5.989145 6.750287 -0.016597 0.202986 0.160504
10 1 7.480068 6.982537 8.130239 -0.692690 0.004931 2.177359
11 1 6.488653 7.706187 5.648759 -0.107107 0.219818 0.845378
12 1 7.893638 8.497434 5.632152 0.851643 0.552959 0.370305
13 1 6.411886 10.171097 6.786159 -0.155395 -1.564460 0.150065
14 1 5.571535 8.683364 7.429234 -0.906466 0.252968 0.909640
15 1 6.793854 10.255115 9.215230 -0.122788 0.067510 -0.296229
16 1 7.406777 8.623990 9.190031 -0.135543 -0.151688 0.449545
17 1 9.038291 10.888702 8.824512 -0.142195 -0.110863 0.484420
18 1 8.972682 10.240772 7.265466 -0.614183 0.126676 -0.311412
19 1 9.446370 8.432865 9.535005 0.802819 -0.561126 -0.402163
20 1 10.852629 9.379241 8.840969 -1.294151 -0.455731 -0.159978
21 1 11.333718 7.612868 7.445646 -1.785587 0.351572 -0.228135
22 1 10.014749 8.503314 6.508105 0.485915 0.478259 -0.665237
23 1 9.619318 5.849124 7.955564 -0.889981 0.966193 -0.854213
24 1 9.576957 6.116420 6.232820 0.369595 0.005413 -0.809575
Energy
-130.490278200000
PlusStress: xx yy zz yz xz xy
0.001085 0.001063 0.000020 0.000781 0.000434 -0.000138
Feature EFS_by vasp
Feature from database:p.cfg
Feature mindist 2.70
END_CFG

BEGIN_CFG
Size
24
Supercell
16.750000 0.000000 0.000000
0.000000 16.750000 0.000000
0.000000 0.000000 15.250000
AtomData: id type cartes_x cartes_y cartes_z fx fy fz
1 0 7.841735 6.788323 7.060713 -0.119443 0.660480 1.968819
2 0 7.237259 8.051480 6.364574 1.289500 0.368249 0.099042
3 0 6.525898 9.011175 7.354855 0.323522 -1.563185 -0.070895
4 0 7.269346 9.521862 8.604768 -0.239062 -1.017382 0.567590
5 0 8.718359 9.973672 8.548540 1.710933 -0.108148 -0.917636
6 0 9.887862 8.886664 8.526033 -2.240558 0.441507 1.043450
7 0 10.142315 8.063619 7.303709 -0.783216 0.224065 -1.660906
8 0 9.381405 6.727938 7.058781 0.142933 0.867485 -1.557064
9 1 7.413716 5.863311 6.657103 -0.013153 -0.093393 -0.003269
10 1 7.544543 6.831056 8.194354 0.157974 -0.198025 -1.690337
11 1 6.606618 7.780857 5.527847 -0.953577 -0.371178 -0.065960
12 1 8.032868 8.561991 5.769778 0.006614 0.090576 0.617939
13 1 6.164568 9.895420 6.884246 -0.594504 0.727260 -1.047344
14 1 5.654928 8.391777 7.697793 0.186007 0.713814 0.030905
15 1 6.613715 10.340260 8.954413 0.273644 -0.081483 0.344119
16 1 7.199076 8.682086 9.344278 0.119377 0.619803 0.041615
17 1 9.004023 10.654805 9.359387 -0.462742 -0.164080 0.616125
18 1 8.966743 10.639987 7.705122 -0.492193 -0.036390 -0.513605
19 1 9.659559 8.220056 9.350029 -0.208283 -0.633217 0.626235
20 1 10.757829 9.392693 8.904017 0.902271 0.508922 -0.238054
21 1 11.172608 7.739033 7.362887 0.777101 0.150576 -0.450582
22 1 9.944240 8.699611 6.377658 0.730132 -0.445458 0.814460
23 1 9.816399 6.014398 7.731211 -0.156644 -0.857954 0.811799
24 1 9.747786 6.389413 6.040355 -0.356382 0.206908 0.628659
Energy
-130.838778720000
PlusStress: xx yy zz yz xz xy
0.000464 0.000743 0.000374 0.000296 -0.000079 -0.000223
Feature EFS_by vasp
Feature from database:p.cfg
Feature mindist 2.70
END_CFG

BEGIN_CFG
Size
24
Supercell
16.750000 0.000000 0.000000
0.000000 16.750000 0.000000
0.000000 0.000000 15.250000
AtomData: id type cartes_x cartes_y cartes_z fx fy fz
1 0 7.923401 6.778602 7.138380 0.668043 0.376613 -2.310894
2 0 7.224101 7.988502 6.412003 -0.673739 0.110622 -0.530975
3 0 6.490929 9.055007 7.321795 1.742309 -0.098565 -0.060595
4 0 7.257438 9.289500 8.714640 -2.068934 1.768217 -2.178609
5 0 8.644835 9.853506 8.568539 1.397072 -0.160928 0.851671
6 0 9.808636 8.846049 8.554302 1.060152 0.491592 1.745315
7 0 10.180849 8.295532 7.165364 -0.012633 -3.040613 2.993760
8 0 9.466568 6.911428 6.946953 0.425050 -0.064651 1.058693
9 1 7.663865 5.784191 6.694859 -0.120977 0.595325 0.031390
10 1 7.620938 6.706546 8.135878 -0.408896 0.031877 1.972284
11 1 6.460501 7.671831 5.616374 0.954078 0.123110 0.831117
12 1 8.034958 8.528417 5.866627 -0.523300 -0.236839 0.017458
13 1 6.440884 10.020783 6.718219 -0.172376 -0.880172 0.734064
14 1 5.491827 8.675260 7.540857 -0.362921 0.167635 0.067829
15 1 6.669230 10.104758 9.192846 -0.100445 -0.534071 0.202429
16 1 7.096301 8.363215 9.239142 0.526178 -0.387490 0.817665
17 1 8.925994 10.498085 9.420631 -0.619140 0.012147 0.251586
18 1 8.771193 10.564303 7.729878 -0.363274 -0.305332 -0.226207
19 1 9.670654 8.073165 9.412379 -0.253413 0.433045 -1.588681
20 1 10.679865 9.388420 9.077747 -0.547127 -0.330668 -1.202732
21 1 11.251098 8.010366 7.245004 -0.171355 0.499053 -0.727932
22 1 9.928961 8.956230 6.406182 -0.045007 1.640404 -1.555923
23 1 10.069538 6.246827 7.638835 -0.871337 0.003688 -0.643996
24 1 9.612563 6.583727 5.924975 0.537342 -0.216841 -0.555616
Energy
-130.513436480000
PlusStress: xx yy zz yz xz xy
0.000896 0.001075 0.000688 -0.000179 0.000860 0.000356
Feature EFS_by vasp
Feature from database:p.cfg
Feature mindist 2.70
END_CFG

BEGIN_CFG
Size
24
Supercell
16.750000 0.000000 0.000000
0.000000 16.750000 0.000000
0.000000 0.000000 15.250000
AtomData: id type cartes_x cartes_y cartes_z fx fy fz
1 0 8.032356 6.871519 7.002526 0.796953 -0.419691 1.396779
2 0 7.160376 7.923546 6.331638 0.233949 0.872633 2.141527
3 0 6.476456 8.875008 7.405824 0.673814 0.385767 -0.139993
4 0 7.214608 9.246368 8.750721 -1.334133 -1.352260 -0.924747
5 0 8.582812 9.873243 8.755366 1.438932 -0.948184 0.611178
6 0 9.816848 8.911846 8.586626 -0.942963 1.690266 -1.215688
7 0 10.155008 8.342243 7.210970 -0.563462 0.411052 -1.965561
8 0 9.576448 6.968871 6.752770 -0.511456 0.337280 0.777334
9 1 7.737866 5.851315 6.788505 -0.287208 -0.538905 -0.505438
10 1 7.908664 6.883676 8.160746 0.123134 0.211247 -1.572893
11 1 6.273480 7.555003 5.858329 -0.279423 -0.751528 -1.021171
12 1 7.777428 8.526247 5.646732 -0.265025 -0.039763 -0.117420
13 1 6.325409 9.782238 6.821528 -0.462181 0.585477 0.080513
14 1 5.468026 8.472173 7.688533 0.601910 0.172211 -0.184301
15 1 6.525435 9.904569 9.273779 -0.372578 0.341848 0.215684