BEGIN_CFG
Size
21
Supercell
17.000000 0.000000 0.000000
0.000000 17.000000 0.000000
0.000000 0.000000 13.250000
AtomData: id type cartes_x cartes_y cartes_z fx fy fz
1 0 8.068000 6.797000 6.606048 -0.610986 -0.279621 0.299713
2 0 6.757000 7.499000 6.222048 -0.193287 -0.600105 -0.568605
3 0 7.242000 9.702000 6.864048 0.051670 0.646306 0.423153
4 0 8.485000 10.548000 6.551048 -0.456606 0.595475 -0.413311
5 0 10.180000 8.957000 6.859048 0.527791 -0.426620 0.346487
6 0 10.276000 7.528000 6.304048 0.707860 0.198663 -0.441764
7 1 7.906000 5.699000 6.580048 -0.066687 0.060451 0.113451
8 1 8.317000 7.052000 7.662048 0.295726 0.043655 -0.381354
9 1 6.025000 7.457000 7.060048 0.171390 -0.021792 -0.064710
10 1 6.301000 6.939000 5.378048 0.108129 0.375020 0.056855
11 1 7.389000 9.194000 7.845048 -0.125367 -0.211521 -0.410962
12 1 6.371000 10.380000 6.991048 0.111639 -0.001443 0.114490
13 1 8.855000 11.063000 7.468048 -0.120803 -0.143820 -0.111527
14 1 8.186000 11.349000 5.841048 0.281547 -0.298172 0.001788
15 1 9.714000 8.920000 7.871048 -0.134820 0.276821 -0.370816
16 1 11.207000 9.355000 7.003048 -0.045298 -0.111345 0.096225
17 1 10.581000 6.813000 7.102048 -0.063301 0.175242 -0.063347
18 1 11.083000 7.510000 5.541048 -0.382470 -0.101346 -0.003756
19 2 6.979000 8.827000 5.781048 -0.448235 -0.163504 0.435521
20 2 9.501000 9.783000 5.929048 0.131460 0.377587 0.469046
21 2 9.077000 7.128000 5.666048 0.265890 -0.385632 0.442520
Energy
-116.555089960000
PlusStress: xx yy zz yz xz xy
0.000439 0.000450 0.001294 -0.000088 -0.000020 0.000003
Feature EFS_by vasp
Feature from database:p.cfg
Feature mindist 2.70
END_CFG

BEGIN_CFG
Size
21
Supercell
17.000000 0.000000 0.000000
0.000000 17.000000 0.000000
0.000000 0.000000 13.250000
AtomData: id type cartes_x cartes_y cartes_z fx fy fz
1 0 8.036673 6.831434 6.558540 -0.387374 0.472147 -0.831008
2 0 6.873172 7.556808 5.877096 -1.711789 -0.748190 0.155090
3 0 7.219128 9.679766 6.981420 0.510164 0.026777 1.265630
4 0 8.439080 10.482296 6.596135 -0.341967 1.781690 -1.155905
5 0 10.256707 8.849719 6.940636 -0.051734 -0.255678 -0.595551
6 0 10.306517 7.560741 6.105999 1.125870 -0.030709 0.031341
7 1 7.779926 5.752455 6.460644 -0.300951 0.285381 1.038009
8 1 8.266915 7.242180 7.579622 -0.194176 -0.851099 -0.513496
9 1 5.927766 7.055686 6.208599 0.191644 0.178153 0.256676
10 1 6.913868 7.309901 4.812368 0.279965 -0.012452 -0.248508
11 1 7.521765 9.041377 7.834782 -0.375058 -0.246265 -0.005409
12 1 6.494165 10.407005 7.431091 0.150755 -0.267691 -0.440610
13 1 8.638002 11.252620 7.367879 -0.133618 -0.082411 0.261572
14 1 8.132945 11.040154 5.670838 0.133743 -0.034033 0.507137
15 1 9.726491 8.657840 7.890638 0.278543 0.353121 0.151792
16 1 11.356486 9.078518 7.089946 -0.910942 0.061646 0.295481
17 1 10.976676 6.857122 6.670094 -0.335203 0.043836 -0.031872
18 1 10.888275 7.840517 5.207096 -0.300935 -0.237222 -0.119689
19 2 6.636433 8.972904 5.923145 0.466791 -0.237320 0.015510
20 2 9.661442 9.915679 6.184676 0.524010 -0.980924 0.031957
21 2 9.123565 6.914370 5.660841 1.390398 0.791674 -0.088870
Energy
-116.175449930000
PlusStress: xx yy zz yz xz xy
0.000659 0.000805 0.000847 0.000086 0.000503 -0.000159
Feature EFS_by vasp
Feature from database:p.cfg
Feature mindist 2.70
END_CFG

BEGIN_CFG
Size
21
Supercell
17.000000 0.000000 0.000000
0.000000 17.000000 0.000000
0.000000 0.000000 13.250000
AtomData: id type cartes_x cartes_y cartes_z fx fy fz
1 0 8.033266 6.778463 6.233649 -0.023115 2.009269 0.415415
2 0 6.837578 7.632446 5.771617 -0.605634 -0.527565 -1.454981
3 0 7.286227 9.606012 7.118309 0.458523 1.032067 -0.453132
4 0 8.482723 10.530564 6.746506 0.363191 -0.590326 1.348542
5 0 10.098600 8.794672 7.030875 -0.123356 -0.838637 -1.164850
6 0 10.335258 7.569463 6.144466 -0.139407 0.175729 -0.314518
7 1 7.749798 5.778391 6.000427 -0.683163 -1.271295 0.414230
8 1 8.211616 6.992828 7.313366 -0.066677 -0.712031 -0.228559
9 1 5.951868 7.108128 6.142383 -0.359413 -0.297688 0.374762
10 1 6.756888 7.542206 4.655554 0.227334 -0.016729 0.506883
11 1 7.532798 8.910766 7.925075 0.138109 -0.418812 -0.016485
12 1 6.609274 10.300546 7.601553 -0.753579 0.429559 0.165404
13 1 8.750112 11.069553 7.706233 -0.260024 -0.116747 -0.470649
14 1 8.204078 11.272532 6.000766 -0.171275 0.093279 -0.271398
15 1 9.378534 8.558290 7.810556 0.037463 -0.020249 0.511296
16 1 11.098398 8.912321 7.453965 0.303192 0.689245 0.480948
17 1 10.876304 6.881720 6.811941 -0.087656 -0.642080 0.020813
18 1 11.064441 7.870511 5.360420 -0.468471 -0.215220 0.009646
19 2 6.622636 9.025950 6.011514 0.833870 -0.017572 0.337601
20 2 9.665244 9.889756 6.256596 -0.210992 0.265471 -0.231102
21 2 9.204267 6.945237 5.476450 1.608538 0.990904 -0.003194
Energy
-116.292116880000
PlusStress: xx yy zz yz xz xy
0.000518 0.000187 0.000858 0.000156 0.000307 0.000043
Feature EFS_by vasp
Feature from database:p.cfg
Feature mindist 2.70
END_CFG

BEGIN_CFG
Size
21
Supercell
17.000000 0.000000 0.000000
0.000000 17.000000 0.000000
0.000000 0.000000 13.250000
AtomData: id type cartes_x cartes_y cartes_z fx fy fz
1 0 8.015725 6.870598 6.067878 0.166291 -1.826226 -1.253393
2 0 6.739346 7.626262 5.798680 -0.224184 0.481501 0.203658
3 0 7.190843 9.558933 7.165654 0.033280 0.289715 0.410741
4 0 8.445898 10.413127 7.048168 0.105564 0.450783 -0.760553
5 0 10.218644 8.763934 7.070297 -0.104038 -1.291244 -0.022608
6 0 10.299761 7.462970 6.148125 -0.227889 0.772396 0.438098
7 1 7.906004 5.774966 5.769703 -0.235334 0.748894 0.514467
8 1 8.251396 6.912972 7.110340 0.196157 -0.038842 1.099549
9 1 5.908676 7.338949 6.517579 0.703004 0.092050 -0.407326
10 1 6.367976 7.430339 4.791933 -0.056701 0.024812 -0.333712
11 1 7.259107 8.761006 7.951824 0.185777 0.213005 -0.492640
12 1 6.376221 10.256387 7.559582 0.189051 -0.680966 -0.808930
13 1 8.774516 10.799901 8.031871 0.044271 0.064694 -0.074109
14 1 8.206627 11.270738 6.346100 0.180734 -0.560616 0.770344
15 1 9.745588 8.590158 8.076094 0.230071 -0.189939 -0.527828
16 1 11.303099 8.990639 7.259285 -0.524023 0.612775 -0.047385
17 1 10.488034 6.585719 6.836553 -0.183876 0.270649 -0.701173
18 1 11.162130 7.602674 5.466174 -0.303017 -0.189284 0.095443
19 2 7.038589 9.023481 5.844053 -1.557994 0.286132 0.729150
20 2 9.466066 9.705280 6.344348 0.947221 0.918095 0.415504
21 2 9.137350 7.349385 5.307525 0.434556 -0.447228 0.737488
Energy
-116.177817170000
PlusStress: xx yy zz yz xz xy
0.001163 0.000895 0.001667 0.000089 -0.000435 -0.000287
Feature EFS_by vasp
Feature from database:p.cfg
Feature mindist 2.70
END_CFG

BEGIN_CFG
Size
21
Supercell
17.000000 0.000000 0.000000
0.000000 17.000000 0.000000
0.000000 0.000000 13.250000
AtomData: id type cartes_x cartes_y cartes_z fx fy fz
1 0 7.926742 6.812884 6.051169 1.035894 0.514045 1.178276
2 0 6.690076 7.659224 5.593231 0.720293 -0.715159 -0.287286
3 0 7.196041 9.468526 7.095033 1.068468 0.436645 0.558779
4 0 8.545118 10.331511 7.281229 -0.969386 -0.840881 -0.342674
5 0 10.180651 8.624528 7.095124 0.335599 0.411745 -0.577684
6 0 10.335753 7.644147 5.909066 -0.503617 0.123939 1.151471
7 1 7.740160 5.726533 5.916261 -0.041786 0.223575 -0.274318
8 1 8.150520 6.905390 7.206439 -0.519700 0.030097 -1.864615
9 1 5.785281 7.300380 6.132398 0.091094 -0.244097 -0.190091
10 1 6.560484 7.566195 4.469646 0.039839 -0.165464 1.046577
11 1 7.189709 8.619703 7.785208 0.118222 -0.232173 0.188239
12 1 6.485296 10.190500 7.528518 -0.518751 0.000323 -0.278153
13 1 8.650576 10.420067 8.381353 0.013702 0.083309 0.042442
14 1 8.353857 11.290748 6.853520 -0.378696 1.131466 -0.213314
15 1 9.481231 8.212877 7.827784 -0.372336 0.061062 0.106639
16 1 11.146704 8.649857 7.668111 -0.245653 0.365009 -0.582446
17 1 10.899241 6.774315 6.363926 -0.195547 0.343862 -0.648334
18 1 10.920090 8.184633 5.133998 -0.182877 -0.572529 0.062675
19 2 6.828142 9.044019 5.797140 0.391484 1.189589 0.023366
20 2 9.756791 9.975429 6.658495 0.440010 -2.167144 0.641504
21 2 9.108113 7.204636 5.274059 -0.330603 0.041622 0.223701
Energy
-116.213482500000
PlusStress: xx yy zz yz xz xy
0.002127 0.001155 0.002149 -0.000211 0.000532 0.000501
Feature EFS_by vasp
Feature from database:p.cfg
Feature mindist 2.70
END_CFG

BEGIN_CFG
Size
21
Supercell
17.000000 0.000000 0.000000
0.000000 17.000000 0.000000
0.000000 0.000000 13.250000
AtomData: id type cartes_x cartes_y cartes_z fx fy fz
1 0 7.931078 6.802687 5.825784 -0.244369 0.595247 -1.637507
2 0 6.798159 7.778936 5.544806 0.641950 0.794349 0.914112
3 0 7.201487 9.433759 7.302806 1.164145 0.032487 -1.183523
4 0 8.358147 10.387873 7.297238 1.498863 0.788854 -0.100530
5 0 10.132683 8.525003 7.118372 -1.514208 -1.644574 -0.534303
6 0 10.311178 7.697494 5.790345 -2.004670 0.997599 0.655767
7 1 7.557977 5.815320 5.531406 0.043354 -0.363637 -0.576163
8 1 8.161153 6.658017 6.817517 0.430743 -0.046431 2.949666
9 1 5.883308 7.437474 6.032251 -0.493085 -0.236167 -0.023609
10 1 6.731638 7.821577 4.482945 -0.559909 -0.112856 -1.200976
11 1 7.540666 8.535651 7.868926 -0.579350 0.124204 -0.147634
12 1 6.331618 9.921450 7.779898 -0.173588 -0.280363 -0.185848
13 1 8.503306 10.873638 8.291500 -0.274642 0.019144 -0.282752
14 1 8.271950 11.163190 6.463156 -0.368565 -0.638228 1.135663
15 1 9.529792 7.847641 7.780286 -0.209332 0.573584 -0.007181
16 1 11.080506 8.524060 7.639255 0.910897 0.287237 0.071745
17 1 10.950283 6.893276 6.111084 0.620493 -0.876105 -0.279405
18 1 10.735994 8.373717 5.046938 0.324728 -0.210352 -0.250727
19 2 7.044290 9.169648 5.876136 -0.499603 -0.918719 0.982654
20 2 9.672191 9.827588 6.947073 -0.137933 0.660196 -0.244772
21 2 9.088210 7.161604 5.104586 1.446539 0.465462 -0.074834
Energy
-115.970307730000
PlusStress: xx yy zz yz xz xy
0.000771 0.001017 0.000497 -0.000066 -0.000096 -0.000057
Feature EFS_by vasp
Feature from database:p.cfg
Feature mindist 2.70
END_CFG

BEGIN_CFG
Size
21
Supercell
17.000000 0.000000 0.000000
0.000000 17.000000 0.000000
0.000000 0.000000 13.250000
AtomData: id type cartes_x cartes_y cartes_z fx fy fz
1 0 7.979701 6.764344 5.548475 0.585362 -0.343674 0.559654
2 0 6.818535 7.760822 5.544755 -0.957860 0.685400 -0.194699
3 0 7.280550 9.407108 7.251897 -1.023915 2.031039 1.399584
4 0 8.529850 10.272786 7.654552 0.456277 -1.740926 -1.017524
5 0 9.914673 8.494827 7.168400 2.026919 0.236039 -0.487499
6 0 10.129078 7.620972 5.897611 2.377767 0.441683 2.256742
7 1 7.732648 5.881518 4.900462 0.060823 0.519720 0.158132
8 1 8.222405 6.278939 6.597575 -0.367200 1.076703 -1.523036
9 1 6.043309 7.359988 6.263381 0.081057 0.321092 -0.713888
10 1 6.404013 7.944761 4.494400 0.346286 -0.782107 1.128996
11 1 7.301316 8.508356 7.894159 -0.478728 0.071616 -0.154007
12 1 6.398804 10.099293 7.456512 0.416801 -0.903407 0.626895
13 1 8.807024 10.095975 8.713370 -0.326700 0.055298 0.053745
14 1 8.445718 11.313346 7.489497 -0.561205 1.428791 -0.265014
15 1 9.197883 7.945968 7.783125 -0.604511 0.556260 0.318900
16 1 10.897409 8.491196 7.816012 -1.240922 -0.161289 -1.142670
17 1 10.418424 6.645609 6.403681 0.221666 0.268335 -0.763071
18 1 11.004560 8.106886 5.412951 -0.296379 -0.589316 -0.337268
19 2 7.147675 9.128138 5.892702 0.511045 -1.004519 -0.623067
20 2 9.623992 9.874035 6.813613 -0.088564 -1.328986 1.140696
21 2 9.118630 7.460118 4.995348 -1.132987 -0.843311 -0.451089
Energy
-115.798495480000
PlusStress: xx yy zz yz xz xy
0.000050 0.002014 0.001710 -0.000828 0.000811 0.000544
Feature EFS_by vasp
Feature from database:p.cfg
Feature mindist 2.70
END_CFG

BEGIN_CFG
Size
21
Supercell
17.000000 0.000000 0.000000
0.000000 17.000000 0.000000
0.000000 0.000000 13.250000
AtomData: id type cartes_x cartes_y cartes_z fx fy fz
1 0 8.019264 7.016554 5.438209 0.038420 -0.697069 0.330409
2 0 6.783308 7.905878 5.453578 0.432671 0.701270 0.398001
3 0 7.171020 9.373734 7.380560 0.773492 -0.494003 -0.674789
4 0 8.449948 10.133345 7.593946 -0.160420 2.246814 -1.388287
5 0 10.078234 8.279233 7.196128 -0.832306 0.174547 0.349168
6 0 10.274954 7.587208 5.858204 0.619800 0.367610 0.453045
7 1 7.754749 6.166568 4.778905 0.021558 -0.107504 0.034393
8 1 8.181718 6.579165 6.451814 0.000713 0.158397 -0.272604
9 1 6.009883 7.316218 5.980546 -0.193805 0.194785 0.186560
10 1 6.423595 8.095747 4.458494 -0.193306 -0.046535 -0.884616
11 1 7.266507 8.412177 7.906540 -0.348562 -0.320781 -0.159363
12 1 6.347536 9.935234 7.790511 -0.662805 0.332984 0.452796
13 1 8.626732 10.472914 8.618145 -0.101589 -0.322436 0.681626
14 1 8.371750 11.107563 6.991502 -0.304729 -0.770133 0.762137
15 1 9.525045 7.629785 7.908437 -0.152429 0.578642 0.081953
16 1 11.077104 8.464142 7.559952 0.776811 -0.464695 0.676196
17 1 10.693497 6.571565 6.038131 -0.084611 0.040451 -0.064320
18 1 11.050665 8.227168 5.459554 0.499464 -0.045983 -1.034996
19 2 6.962071 9.242330 5.952854 -0.220318 -0.664497 0.737552
20 2 9.590676 9.615458 6.988042 0.746754 -0.913947 -0.396770
21 2 9.215754 7.604051 4.949829 -0.644958 0.076029 -0.278418
Energy
-116.301275240000
PlusStress: xx yy zz yz xz xy
-0.000356 0.001065 0.000094 -0.000304 0.000147 0.000141
Feature EFS_by vasp
Feature from database:p.cfg
Feature mindist 2.70
END_CFG

BEGIN_CFG
Size
21
Supercell
17.000000 0.000000 0.000000
0.000000 17.000000 0.000000
0.000000 0.000000 13.250000
AtomData: id type cartes_x cartes_y cartes_z fx fy fz
1 0 7.965113 7.136992 5.399593 -1.480656 0.232428 0.118787
2 0 6.800782 8.124502 5.134698 -0.222833 -0.536555 -0.467540
3 0 7.210325 9.133984 7.369503 -0.432415 1.606157 1.089512
4 0 8.519626 9.934955 7.667432 1.088993 -1.085980 1.359147
5 0 10.123548 8.264474 7.231742 0.537837 -0.502171 -1.161410
6 0 10.320072 7.663275 5.852941 0.682833 -0.391634 0.229992
7 1 7.765691 6.201112 4.844117 -0.105886 -0.131653 0.021501
8 1 7.967887 6.922758 6.470874 -0.282167 -0.452064 0.326567
9 1 5.892559 7.485843 5.160708 -0.214831 0.108835 0.395427
10 1 6.750651 8.577233 4.095633 0.630213 -0.397026 0.852208
11 1 7.212908 8.148806 7.921880 -0.033357 0.341033 -0.980203
12 1 6.468315 9.756875 7.975499 0.523907 -0.609944 -0.396000
13 1 8.678149 9.887296 8.803491 -0.361781 -0.325357 -0.788050
14 1 8.489509 10.981380 7.508051 -0.773884 1.339210 -0.696603
15 1 9.326847 7.638471 7.623750 -0.267517 0.097469 1.112228
16 1 11.061878 8.231052 7.815597 -0.126801 -0.523507 0.120278
17 1 10.628603 6.633627 6.032937 0.258908 -0.732683 -0.128005
18 1 11.206401 8.181198 5.398016 -1.047801 -0.187648 -0.482954
19 2 6.701236 9.231544 6.036693 0.393501 -0.341123 0.252051
20 2 9.788973 9.597935 7.048478 -1.664109 0.833407 0.385138
21 2 9.148588 7.681500 5.022521 2.890351 1.680690 -1.177322
Energy
-115.933386810000
PlusStress: xx yy zz yz xz xy
0.001130 -0.000094 0.001102 0.000033 0.001027 0.000504
Feature EFS_by vasp
Feature from database:p.cfg
Feature mindist 2.70
END_CFG

BEGIN_CFG
Size
21
Supercell
17.000000 0.000000 0.000000
0.000000 17.000000 0.000000
0.000000 0.000000 13.250000
AtomData: id type cartes_x cartes_y cartes_z fx fy fz
1 0 7.900983 7.238731 5.144347 2.079903 -0.704977 1.634540
2 0 6.791217 8.221630 5.158382 -1.303088 0.229354 0.995122
3 0 7.216635 8.971434 7.395397 0.221555 0.727935 0.809312
4 0 8.395401 9.778065 7.850368 0.889161 2.248644 -2.066051
5 0 10.239424 8.296873 7.219662 -0.624151 -0.998922 -0.145082
6 0 10.246936 7.469539 5.849213 -1.959537 -0.376211 2.467860
7 1 7.754426 6.510983 4.322010 -0.000870 -0.006512 0.163837
8 1 7.928972 6.677229 6.163572 -0.091281 0.459037 -1.513270
9 1 5.859646 7.631303 5.392660 0.313539 0.192903 0.162209
10 1 6.562449 8.628434 4.193923 0.242098 0.672314 -0.856595
11 1 7.375311 7.921915 7.576917 0.323750 -0.965491 -0.365413
12 1 6.405860 9.173053 8.115014 -0.541164 0.448723 -0.233863
13 1 8.568773 9.846330 8.900554 0.192815 -0.627199 1.370628
14 1 8.225507 10.870106 7.559410 -0.282198 -1.010098 0.270334
15 1 9.656670 7.657781 7.920516 0.382756 0.313967 0.261460
16 1 11.303284 8.385396 7.550280 -0.477149 0.088668 0.120278
17 1 10.171701 6.380418 6.160234 -0.200386 0.627089 -0.405009
18 1 11.228963 7.565671 5.505349 1.461675 0.508751 -1.819709
19 2 6.944406 9.343888 6.060511 -0.473058 -1.013725 -0.566038
20 2 9.624214 9.565575 7.103484 0.113378 -0.168039 0.331723
21 2 9.207423 7.900457 4.990761 -0.259882 -0.634920 -0.636601
Energy
-115.988709020000
PlusStress: xx yy zz yz xz xy
0.001007 0.001159 0.000451 -0.000030 0.000177 0.000339
Feature EFS_by vasp
Feature from database:p.cfg
Feature mindist 2.70
END_CFG

BEGIN_CFG
Size
21
Supercell
17.000000 0.000000 0.000000
0.000000 17.000000 0.000000
0.000000 0.000000 13.250000
AtomData: id type cartes_x cartes_y cartes_z fx fy fz
1 0 7.937201 7.230087 4.943665 -0.598788 1.215996 -1.430638
2 0 6.774672 8.309055 5.133046 1.940096 0.938820 -1.359077
3 0 7.241564 8.947034 7.449094 1.079900 -0.974663 0.222317
4 0 8.454341 9.733799 8.070286 -0.589301 -1.637384 -0.053994
5 0 10.048377 8.143367 7.218719 -0.801403 -0.235233 0.010738
6 0 10.234924 7.581349 5.733912 0.825888 2.807237 1.517539
7 1 7.788586 6.709669 3.959898 -0.286814 0.433831 0.261942
8 1 8.016679 6.428698 5.609288 -0.167470 -1.325071 1.877567
9 1 5.750353 7.963517 5.244577 -0.304408 -0.720215 0.012274
10 1 6.873662 8.876698 4.143346 -0.501998 -0.509804 0.987399
11 1 7.352816 7.811108 7.487206 0.247269 1.076720 0.061585
12 1 6.438811 9.135955 8.156369 -1.116790 0.402011 -0.156877
13 1 8.664034 9.450806 9.142029 -0.577702 -0.065554 -0.410396
14 1 8.233975 10.783574 8.048907 -0.289125 0.940101 -0.049439
15 1 9.353244 7.442321 7.771084 0.058550 0.844417 -0.395710
16 1 10.997418 7.959394 7.761164 0.148287 0.552094 -0.195557
17 1 10.477566 6.534076 5.872386 -0.138833 -0.851190 -0.278529
18 1 11.202546 8.114703 5.404152 -1.394838 -0.676723 -0.299643
19 2 7.050596 9.344498 6.080309 -0.116523 -0.068251 0.873105
20 2 9.614260 9.578563 7.318254 1.878668 -2.235258 -0.864370
21 2 9.179133 7.912948 4.855227 0.697117 0.107154 -0.352219
Energy
-115.890886860000
PlusStress: xx yy zz yz xz xy
0.001079 0.002039 0.001760 0.000716 0.000431 -0.000162
Feature EFS_by vasp
Feature from database:p.cfg
Feature mindist 2.70
END_CFG

BEGIN_CFG
Size
21
Supercell
17.000000 0.000000 0.000000
0.000000 17.000000 0.000000
0.000000 0.000000 13.250000
AtomData: id type cartes_x cartes_y cartes_z fx fy fz
1 0 7.997352 7.356161 5.086406 0.715674 -0.799813 1.553238
2 0 6.884571 8.369678 5.145886 -1.370427 -0.989928 1.302260
3 0 7.148000 9.032770 7.425884 -1.137981 0.661630 0.842944
4 0 8.332056 9.631730 8.106732 2.622631 -0.125112 0.390078
5 0 9.963109 7.894455 7.124043 0.891503 0.233859 -0.122488
6 0 10.322775 7.860501 5.611403 -2.115568 -1.157144 1.181621
7 1 7.789372 6.520453 4.425906 -0.546258 -0.222186 -0.754869
8 1 8.125764 6.788375 6.093379 -0.175349 1.001443 -1.231279
9 1 5.946123 7.855179 5.504823 0.271675 -0.164265 -0.941549
10 1 6.768316 8.832569 4.184862 -0.299952 0.347162 -0.745926
11 1 7.260106 7.956073 7.493621 -0.218612 -0.620890 0.060464
12 1 6.233547 9.313503 8.122305 1.036779 -0.322620 -1.380638
13 1 8.406977 9.221426 9.163967 -0.511239 0.717473 -0.644634
14 1 8.402048 10.771813 8.068146 -0.246002 -1.341361 0.130710
15 1 9.256435 7.166962 7.488324 -1.031802 -0.365024 -0.049304
16 1 10.875370 7.463335 7.629713 -0.004483 0.868067 -0.083483
17 1 10.953727 6.955688 5.501379 -0.252379 -0.002877 -0.681602
18 1 10.884383 8.744373 5.552913 1.145699 1.381303 -0.838890
19 2 7.017680 9.436449 6.070063 0.593243 0.742928 0.638723
20 2 9.684317 9.234863 7.520409 -0.904512 0.460014 0.255281
21 2 9.189905 7.990403 4.660319 1.550361 -0.272541 1.115488
Energy
-115.861529390000
PlusStress: xx yy zz yz xz xy
0.001033 0.000931 0.001658 -0.000562 -0.000492 -0.001263
Feature EFS_by vasp
Feature from database:p.cfg
Feature mindist 2.70
END_CFG

BEGIN_CFG
Size
21
Supercell
17.000000 0.000000 0.000000
0.000000 17.000000 0.000000
0.000000 0.000000 13.250000
AtomData: id type cartes_x cartes_y cartes_z fx fy fz
1 0 7.971411 7.511709 4.907222 0.781501 -1.166880 -2.099539
2 0 6.829519 8.433296 5.079546 -0.566726 1.423320 -0.538306
3 0 7.046989 9.051322 7.416951 2.027377 -2.871467 -0.185808
4 0 8.399625 9.311525 8.212160 0.580726 -0.644759 -1.944435
5 0 10.089104 7.849780 7.202683 -2.063183 0.501037 -1.435219
6 0 10.239879 7.812710 5.594860 1.334201 0.921225 1.737505
7 1 7.954942 6.859415 3.970548 -0.835308 0.338828 0.820156
8 1 7.994907 6.874333 5.748368 0.184611 -1.229291 1.300334
9 1 5.936367 7.885165 5.387627 -0.509189 -0.345599 -0.387420
10 1 6.664464 9.065305 4.164564 -0.147278 -0.623249 0.453572
11 1 6.909624 7.909579 7.422043 -0.431435 1.117818 0.586262
12 1 6.286787 9.594583 7.955010 -0.821567 0.173104 0.329379
13 1 8.480642 8.604796 9.010678 -0.485751 -0.413570 1.224842
14 1 8.391068 10.317842 8.526387 0.028388 1.417158 0.770421
15 1 9.341774 7.100384 7.634623 0.649891 0.604574 -0.539804
16 1 11.064988 7.613953 7.620873 0.492517 0.056760 0.176901
17 1 10.608982 6.786402 5.389079 0.159568 0.119666 -0.461443
18 1 11.035954 8.639226 5.448258 -0.805426 -1.407521 -0.182448
19 2 7.101333 9.399199 6.071760 0.123579 1.830527 -0.160747
20 2 9.685904 9.203034 7.529211 -0.550163 -0.573018 0.158827
21 2 9.172697 8.211991 4.774535 0.870761 0.798664 0.364150
Energy
-115.905184790000
PlusStress: xx yy zz yz xz xy
0.000556 0.000511 0.000831 -0.000002 0.000080 0.000080
Feature EFS_by vasp
Feature from database:p.cfg
Feature mindist 2.70
END_CFG

BEGIN_CFG
Size
21
Supercell
17.000000 0.000000 0.000000
0.000000 17.000000 0.000000
0.000000 0.000000 13.250000
AtomData: id type cartes_x cartes_y cartes_z fx fy fz
1 0 7.939735 7.695147 4.800718 1.432075 -0.842741 1.137731
2 0 6.873903 8.736824 5.078514 0.096719 -0.008015 -0.169214
3 0 7.178492 8.646099 7.423955 -0.048923 2.867809 1.028254
4 0 8.366059 9.254502 8.201957 0.067403 0.591159 -0.316479
5 0 9.979246 7.813377 7.124260 0.944410 1.658736 1.512457
6 0 10.278490 7.694313 5.667507 -1.739276 -0.296026 -0.288001
7 1 7.804887 7.346848 3.789432 -0.499370 -0.688628 -0.603451
8 1 7.945271 6.824012 5.545550 -0.267452 0.726076 -0.996619
9 1 5.857295 8.290204 5.052745 0.098952 -0.247846 -0.215127
10 1 6.958713 9.464967 4.278225 -0.188622 0.413069 -0.420741
11 1 7.344587 7.628106 7.164177 -0.192808 -1.109372 -0.007137
12 1 6.283554 8.837257 8.065961 0.115762 -0.657288 -0.237652
13 1 8.544675 8.760086 9.178087 -0.541950 0.181230 0.189153
14 1 8.170698 10.376752 8.297656 0.145820 -1.244439 0.219435
15 1 9.230506 7.121003 7.480710 -0.223479 -0.556288 0.356013
16 1 10.983067 7.681751 7.652603 -1.004660 -0.475847 -0.279860
17 1 10.503435 6.621470 5.484394 0.029040 0.127645 -0.345058
18 1 11.138752 8.293266 5.558856 1.340533 0.788664 -0.916968
19 2 7.043655 9.476081 6.255560 0.042175 -0.247842 0.607181
20 2 9.590878 9.184305 7.486000 0.347941 -0.763431 -0.672717
21 2 9.289891 8.251817 4.767013 0.026749 -0.188562 0.407365
Energy
-116.264054910000
PlusStress: xx yy zz yz xz xy
0.001040 0.001014 -0.000261 -0.000292 0.000555 -0.000485
Feature EFS_by vasp
Feature from database:p.cfg
Feature mindist 2.70
END_CFG

BEGIN_CFG
Size
21
Supercell
17.000000 0.000000 0.000000
0.000000 17.000000 0.000000
0.000000 0.000000 13.250000
AtomData: id type cartes_x cartes_y cartes_z fx fy fz
1 0 8.056861 7.793355 4.741029 0.028946 1.497195 -1.662075
2 0 7.043977 8.920737 5.077106 -0.321707 0.454995 -0.895135
3 0 7.085690 8.687903 7.550411 -0.555771 -1.369257 0.441455
4 0 8.354958 9.110825 8.243387 1.224240 -0.264397 0.719180
5 0 9.924709 7.764849 7.036924 -0.689820 -0.999457 -0.246183
6 0 10.330728 7.729105 5.557882 1.246637 0.662584 0.672550
7 1 7.863074 7.572632 3.648943 -0.397500 -0.117760 0.778985
8 1 8.043281 6.873831 5.281861 -0.416144 -0.894805 0.738057
9 1 6.042936 8.672434 4.613136 0.618947 -0.144701 0.322793
10 1 7.429695 9.809963 4.484736 -0.304929 -0.689643 0.545923
11 1 7.036007 7.528465 7.426575 -0.089926 1.565916 -0.096335
12 1 6.316925 8.967720 8.317768 0.047564 -0.384695 -0.395988
13 1 8.420466 8.547662 9.249776 -0.064118 0.511653 -0.995743
14 1 8.293657 10.179843 8.446460 -0.104130 0.293349 0.242930
15 1 9.029391 7.120290 7.192515 0.542633 -0.313131 -0.055580
16 1 10.753182 7.417854 7.641661 0.591678 -0.836899 0.228052
17 1 10.521700 6.668856 5.301176 0.069732 -0.099627 -0.035832
18 1 11.347053 8.284799 5.472326 -1.551303 -0.533332 -0.277924
19 2 6.771993 9.435371 6.398117 0.393347 -0.313837 -0.368278
20 2 9.607758 9.018605 7.526094 -0.884446 1.522345 0.144621
21 2 9.388053 8.308313 4.681519 0.619478 0.465933 0.174810
Energy
-116.213288630000
PlusStress: xx yy zz yz xz xy
0.001327 0.000691 0.001373 0.000075 -0.000412 0.000195
Feature EFS_by vasp
Feature from database:p.cfg
Feature mindist 2.70
END_CFG

BEGIN_CFG
Size
21
Supercell
17.000000 0.000000 0.000000
0.000000 17.000000 0.000000
0.000000 0.000000 13.250000
AtomData: id type cartes_x cartes_y cartes_z fx fy fz
1 0 8.052630 7.981937 4.754098 1.306176 -1.247362 1.139903
2 0 6.991967 8.990541 5.118220 -0.996066 -0.244240 -0.330506
3 0 7.051154 8.652146 7.468179 -0.587601 -1.136284 0.315504
4 0 8.319594 8.864879 8.227451 0.241766 1.663526 0.552826
5 0 9.991955 7.590025 7.012907 -0.293511 0.233793 0.330065
6 0 10.382802 7.817242 5.558634 -1.245389 -3.085454 -0.412926
7 1 7.871562 7.565428 3.743410 -0.158683 0.355046 -0.059386
8 1 7.991306 7.067279 5.427318 -0.067375 0.737184 -0.466279
9 1 6.041482 8.460321 4.900084 -0.187633 -0.167900 0.158167
10 1 6.968594 9.808924 4.413219 0.362080 0.667740 -0.293278
11 1 6.946700 7.597559 7.123457 0.226137 0.245130 -0.205855
12 1 6.232173 8.697028 8.216713 -0.185302 0.574483 -0.214757
13 1 8.343529 8.233014 9.113588 0.180565 -0.699008 0.375392
14 1 8.268370 9.916491 8.656437 0.210087 -0.739126 -0.489697
15 1 9.211972 6.817325 7.079856 -0.102074 -0.215512 0.008047
16 1 10.818784 7.269244 7.692309 0.029203 -0.021026 -0.506994
17 1 10.513160 6.755747 5.136983 0.074752 0.827323 0.140918
18 1 11.333938 8.275108 5.461242 0.879481 1.118497 -0.255887
19 2 6.925649 9.583630 6.415463 0.152727 -0.300059 -0.261723
20 2 9.487493 8.828539 7.438212 0.094412 0.863206 0.776857
21 2 9.394520 8.506503 4.809558 0.091681 0.586181 -0.316328
Energy
-116.372169770000
PlusStress: xx yy zz yz xz xy
0.000382 0.000774 0.000379 0.000125 0.000103 -0.000155
Feature EFS_by vasp
Feature from database:p.cfg
Feature mindist 2.70
END_CFG

BEGIN_CFG
Size
21
Supercell
17.000000 0.000000 0.000000
0.000000 17.000000 0.000000
0.000000 0.000000 13.250000
AtomData: id type cartes_x cartes_y cartes_z fx fy fz
1 0 8.020356 8.068638 4.601220 0.223464 -0.115957 0.068261
2 0 6.932088 9.048264 5.002252 1.126311 0.580243 -0.195559
3 0 7.089592 8.582105 7.399289 0.266042 0.905429 1.261036
4 0 8.344279 8.674631 8.406354 -1.659009 -1.453133 -1.053830
5 0 9.900766 7.571466 6.962551 -0.651900 -0.972485 0.931510
6 0 10.244114 7.899962 5.500677 0.696277 1.681925 1.069400
7 1 7.861010 7.714767 3.577191 0.090062 0.263679 -0.670499
8 1 8.116624 7.137027 5.153061 -0.913643 -0.424456 0.604287
9 1 5.954362 8.654007 4.736277 -0.820171 -0.497174 0.721427
10 1 6.984523 9.936845 4.322987 0.375844 -0.234512 0.488075
11 1 6.900970 7.557798 7.098863 0.478250 -0.561462 -0.824107
12 1 6.167018 8.736814 8.010849 0.253772 0.559231 -0.043280
13 1 8.251280 7.846988 9.148927 -0.063883 -0.424736 -0.386775
14 1 8.253910 9.503797 9.061819 0.080719 1.606607 0.255641
15 1 9.025182 6.877283 7.046366 0.367035 0.100212 -0.367082
16 1 10.735802 6.988835 7.470119 -0.316481 0.541207 -0.693266
17 1 10.536458 6.962863 5.049676 -0.349052 -0.819772 -0.827276
18 1 11.228620 8.456224 5.525046 -0.996299 0.132133 -0.223213
19 2 7.186965 9.552353 6.327852 -0.912026 -0.849550 0.312909
20 2 9.586831 8.696316 7.783705 0.946813 0.512577 -0.438455
21 2 9.261087 8.714458 4.799935 1.780972 -0.500728 0.022017
Energy
-116.117392280000
PlusStress: xx yy zz yz xz xy
0.001206 0.000300 0.001715 -0.000847 0.001052 -0.000483
Feature EFS_by vasp
Feature from database:p.cfg
Feature mindist 2.70
END_CFG

BEGIN_CFG
Size
21
Supercell
17.000000 0.000000 0.000000
0.000000 17.000000 0.000000
0.000000 0.000000 13.250000
AtomData: id type cartes_x cartes_y cartes_z fx fy fz
1 0 7.991509 8.203413 4.469387 1.477377 1.524830 -0.677036
2 0 6.897473 9.160868 5.102120 0.343876 -1.448460 0.018557
3 0 7.100263 8.523269 7.408012 0.592992 -1.418265 0.096190
4 0 8.202742 8.667045 8.454919 1.101387 1.618259 0.076526
5 0 9.857344 7.429735 6.868671 -1.111856 1.548893 0.307934
6 0 10.291143 8.072840 5.498731 -0.831351 -0.673656 1.120615
7 1 7.833622 8.318747 3.366633 -0.096988 -0.506865 0.414508
8 1 8.060810 7.131508 4.742722 -0.786856 0.312071 0.133376
9 1 5.938566 8.547854 4.935554 0.535293 0.770725 0.691239
10 1 6.768389 10.122402 4.570355 0.372178 -0.390236 -0.170235
11 1 7.249293 7.471687 6.963526 -0.503980 1.147881 0.174291
12 1 6.088764 8.559594 7.862267 0.167498 -0.103287 0.136636
13 1 8.005037 8.138893 9.436566 0.196399 -0.222247 -1.024774
14 1 8.232874 9.778719 8.769380 0.140161 -1.289994 -0.500875
15 1 9.020009 6.722708 6.881574 -0.085845 -0.196624 -0.521288
16 1 10.720348 6.884213 7.202086 0.826136 -0.477856 0.293640
17 1 10.864212 7.269772 4.997045 -0.152322 -0.064924 -0.395370
18 1 11.010682 8.821250 5.824619 0.275218 0.473923 -0.180186
19 2 7.219448 9.555868 6.440109 -0.476927 -0.445762 -0.401954
20 2 9.607025 8.423980 7.928481 -1.257572 -0.042688 0.137551
21 2 9.365529 8.736921 4.636380 -0.686424 -0.105166 0.272492
Energy
-115.974427000000
PlusStress: xx yy zz yz xz xy
0.002443 0.002223 0.002131 0.000267 -0.000227 -0.000638
Feature EFS_by vasp
Feature from database:p.cfg
Feature mindist 2.70
END_CFG

BEGIN_CFG
Size
21
Supercell
17.000000 0.000000 0.000000
0.000000 17.000000 0.000000
0.000000 0.000000 13.250000
AtomData: id type cartes_x cartes_y cartes_z fx fy fz
1 0 8.091268 8.315569 4.494411 0.974311 0.120563 1.636382
2 0 7.057759 9.223641 5.106349 -0.826978 0.960032 -0.333328
3 0 7.039589 8.480019 7.423752 0.621711 1.031383 0.813641
4 0 8.254736 8.424701 8.389496 -0.006279 -0.855687 -0.289682
5 0 9.721303 7.398895 6.743799 0.545375 0.565129 1.399304
6 0 10.272992 8.074817 5.462766 0.160678 -0.934679 0.255624
7 1 8.020682 8.145112 3.418608 -0.409370 0.036064 -0.332564
8 1 8.105181 7.357979 5.048323 -0.558513 -0.174020 -0.667280
9 1 6.078982 8.767995 4.821618 -0.191089 0.460436 0.447710
10 1 7.160636 10.258122 4.710381 -0.238294 -0.548503 -0.483713