BEGIN_CFG
Size
7
Supercell
14.250000 0.000000 0.000000
0.000000 13.000000 0.000000
0.000000 0.000000 12.750000
AtomData: id type cartes_x cartes_y cartes_z fx fy fz
1 0 6.388000 6.518000 6.457000 -0.382431 0.366532 0.251629
2 0 7.859000 6.602000 6.369000 0.391983 0.423749 0.206872
3 1 5.975000 6.120000 7.407000 -0.279120 0.578157 -0.451735
4 1 5.816000 7.157000 5.752000 -0.155255 -0.179118 0.757981
5 1 8.267000 7.297000 5.605000 0.261257 -0.155659 0.739162
6 1 8.426000 6.260000 7.260000 0.145893 0.607744 -0.481143
7 2 7.144000 5.546000 5.775000 0.018535 -1.618589 -1.008854
Energy
-37.904320140000
PlusStress: xx yy zz yz xz xy
-0.000311 -0.000037 0.000989 -0.001057 0.000138 -0.000087
Feature EFS_by vasp
Feature from database:p.cfg
Feature mindist 2.70
END_CFG

BEGIN_CFG
Size
7
Supercell
14.250000 0.000000 0.000000
0.000000 13.000000 0.000000
0.000000 0.000000 12.750000
AtomData: id type cartes_x cartes_y cartes_z fx fy fz
1 0 6.409694 6.261826 6.632308 -0.297956 0.958137 -0.523906
2 0 7.749317 6.792240 6.276549 -0.326554 -0.980236 1.036096
3 1 6.234933 5.702318 7.540726 -0.025522 0.012355 0.536241
4 1 5.563394 6.768580 6.177349 -0.454962 0.061660 0.103560
5 1 7.942523 7.598633 5.597538 -0.052276 0.719031 -0.244882
6 1 8.473663 6.494043 7.006154 1.068246 0.506104 0.466564
7 2 7.226895 5.612398 5.694189 0.085300 -1.284256 -1.378013
Energy
-37.896122160000
PlusStress: xx yy zz yz xz xy
-0.000487 -0.000175 -0.000299 -0.000467 -0.000247 0.000087
Feature EFS_by vasp
Feature from database:p.cfg
Feature mindist 2.70
END_CFG

BEGIN_CFG
Size
7
Supercell
14.250000 0.000000 0.000000
0.000000 13.000000 0.000000
0.000000 0.000000 12.750000
AtomData: id type cartes_x cartes_y cartes_z fx fy fz
1 0 6.548436 6.087514 6.741275 -2.587404 -2.724940 1.932132
2 0 7.546846 6.927977 6.276400 2.419943 1.916717 -1.714284
3 1 6.765427 5.532803 7.693048 -0.015493 0.138215 -0.613856
4 1 5.453415 6.177795 6.633160 0.309630 0.445277 -0.349325
5 1 7.342748 7.817953 5.617679 0.230259 -0.643234 0.754220
6 1 8.493915 6.916481 6.878701 -0.514752 0.319167 -0.676515
7 2 7.284674 5.648764 5.581200 0.162989 0.543277 0.660165
Energy
-37.803681820000
PlusStress: xx yy zz yz xz xy
-0.000141 0.000210 0.001034 0.000251 0.000756 -0.000862
Feature EFS_by vasp
Feature from database:p.cfg
Feature mindist 2.70
END_CFG

BEGIN_CFG
Size
7
Supercell
14.250000 0.000000 0.000000
0.000000 13.000000 0.000000
0.000000 0.000000 12.750000
AtomData: id type cartes_x cartes_y cartes_z fx fy fz
1 0 6.702323 5.838155 6.815284 -0.143372 0.172733 1.966696
2 0 7.370318 7.000078 6.199361 -1.153954 1.762838 1.142321
3 1 7.228189 5.369110 7.636145 0.337933 -0.447895 0.288029
4 1 5.626987 5.683455 6.866264 -0.340248 0.338086 -0.242607
5 1 6.693291 7.714364 5.795285 -0.522599 1.118313 -0.507889
6 1 8.320937 7.384590 6.499595 0.880931 0.129236 0.498660
7 2 7.313301 5.800174 5.585056 0.941341 -3.075986 -3.142768
Energy
-37.766041980000
PlusStress: xx yy zz yz xz xy
-0.000260 -0.001548 -0.001167 -0.000510 0.000020 0.000436
Feature EFS_by vasp
Feature from database:p.cfg
Feature mindist 2.70
END_CFG

BEGIN_CFG
Size
7
Supercell
14.250000 0.000000 0.000000
0.000000 13.000000 0.000000
0.000000 0.000000 12.750000
AtomData: id type cartes_x cartes_y cartes_z fx fy fz
1 0 6.959328 5.746894 6.869129 -0.704721 -1.798343 0.853165
2 0 7.076020 7.028945 6.254844 0.782226 2.667925 -0.605712
3 1 7.734564 5.277580 7.520847 -0.573834 0.512492 -0.174947
4 1 5.913073 5.398631 6.951224 0.398863 -0.287270 0.434452
5 1 6.175222 7.610085 5.923023 0.546658 -0.411664 0.407967
6 1 7.992272 7.645825 6.435303 -0.658392 -0.216481 -0.008622
7 2 7.344688 5.860725 5.500915 0.212190 -0.475314 -0.934207
Energy
-37.936837940000
PlusStress: xx yy zz yz xz xy
0.001248 -0.000482 -0.000102 0.000080 0.000600 -0.000383
Feature EFS_by vasp
Feature from database:p.cfg
Feature mindist 2.70
END_CFG

BEGIN_CFG
Size
7
Supercell
14.250000 0.000000 0.000000
0.000000 13.000000 0.000000
0.000000 0.000000 12.750000
AtomData: id type cartes_x cartes_y cartes_z fx fy fz
1 0 7.197099 5.706325 6.870833 0.103387 -0.553123 -0.992013
2 0 6.824761 6.990025 6.334106 0.472365 -0.088033 -1.205967
3 1 8.177900 5.563580 7.309069 -0.075941 -0.214531 0.723906
4 1 6.350895 5.044564 7.007281 0.107703 -0.583024 0.773542
5 1 5.786489 7.222820 6.155097 -0.492627 0.128362 0.044126
6 1 7.503466 7.816780 6.386380 0.358993 0.695253 0.273134
7 2 7.354588 5.938170 5.438421 -0.470646 0.613531 0.374729
Energy
-37.901012950000
PlusStress: xx yy zz yz xz xy
0.000335 -0.000473 0.000246 0.000608 -0.000225 -0.000152
Feature EFS_by vasp
Feature from database:p.cfg
Feature mindist 2.70
END_CFG

BEGIN_CFG
Size
7
Supercell
14.250000 0.000000 0.000000
0.000000 13.000000 0.000000
0.000000 0.000000 12.750000
AtomData: id type cartes_x cartes_y cartes_z fx fy fz
1 0 7.451913 5.678561 6.788770 -0.580562 1.052641 1.024726
2 0 6.617906 6.872336 6.362187 -0.798201 -0.182129 1.064288
3 1 8.395539 6.027388 7.209916 0.297549 -0.664532 0.376633
4 1 6.981812 4.721952 7.092617 0.286371 0.433264 -0.027822
5 1 5.512198 6.738502 6.325580 0.550391 0.271655 0.071004
6 1 7.005517 7.908639 6.532945 -0.228576 -0.690193 -0.145584
7 2 7.313816 6.063064 5.459993 0.468995 -0.220830 -2.365109
Energy
-37.883449680000
PlusStress: xx yy zz yz xz xy
0.000558 0.001359 -0.000812 -0.000114 0.000122 0.000413
Feature EFS_by vasp
Feature from database:p.cfg
Feature mindist 2.70
END_CFG

BEGIN_CFG
Size
7
Supercell
14.250000 0.000000 0.000000
0.000000 13.000000 0.000000
0.000000 0.000000 12.750000
AtomData: id type cartes_x cartes_y cartes_z fx fy fz
1 0 7.622200 5.816640 6.752166 1.840084 -0.798091 0.884310
2 0 6.474840 6.634711 6.473632 -0.611800 0.144328 0.114464
3 1 8.513848 6.287746 7.251195 -0.461807 0.186349 -0.876486
4 1 7.676073 4.745503 7.046972 -0.847744 0.308144 -0.503612
5 1 5.470029 6.253836 6.517613 -0.598730 -0.375331 0.004054
6 1 6.559050 7.686539 6.704870 0.027105 0.609355 -0.032100
7 2 7.273136 6.164220 5.381335 0.650937 -0.077370 0.394169
Energy
-37.890531070000
PlusStress: xx yy zz yz xz xy
-0.000104 0.000125 0.000883 -0.000130 0.000455 -0.000035
Feature EFS_by vasp
Feature from database:p.cfg
Feature mindist 2.70
END_CFG

BEGIN_CFG
Size
7
Supercell
14.250000 0.000000 0.000000
0.000000 13.000000 0.000000
0.000000 0.000000 12.750000
AtomData: id type cartes_x cartes_y cartes_z fx fy fz
1 0 7.786480 5.976606 6.682091 -0.580711 -0.885260 -0.851504
2 0 6.375558 6.360033 6.575341 0.009118 0.549415 -0.446562
3 1 8.585207 6.598485 7.013297 0.379556 1.205179 0.365151
4 1 8.071017 4.947997 6.820017 -0.158580 -0.841885 0.001079
5 1 5.523849 5.641937 6.586343 0.656835 0.252376 0.200568
6 1 6.138358 7.400481 6.872039 -0.137502 -0.371398 -0.173272
7 2 7.218128 6.274378 5.371898 -0.163363 0.093744 0.889339
Energy
-37.952276300000
PlusStress: xx yy zz yz xz xy
0.000805 -0.000017 0.000844 0.000007 -0.000096 0.000053
Feature EFS_by vasp
Feature from database:p.cfg
Feature mindist 2.70
END_CFG

BEGIN_CFG
Size
7
Supercell
14.250000 0.000000 0.000000
0.000000 13.000000 0.000000
0.000000 0.000000 12.750000
AtomData: id type cartes_x cartes_y cartes_z fx fy fz
1 0 7.899931 6.145261 6.580145 -0.527326 -0.094862 0.776679
2 0 6.373338 6.074191 6.618218 1.972335 0.292483 -0.170147
3 1 8.383336 7.069524 7.020980 -0.261811 -1.020498 -0.420551
4 1 8.473135 5.159715 6.596422 -0.511447 1.211797 0.000696
5 1 5.949127 5.078150 6.643774 -0.398500 -0.195672 0.002118
6 1 5.823196 6.928017 7.010642 -0.182019 -0.071507 0.189330
7 2 7.115230 6.384442 5.417484 -0.095731 -0.113238 -0.391750
Energy
-37.943673990000
PlusStress: xx yy zz yz xz xy
0.001336 0.001351 0.000250 0.000162 0.000014 -0.000165
Feature EFS_by vasp
Feature from database:p.cfg
Feature mindist 2.70
END_CFG

BEGIN_CFG
Size
7
Supercell
14.250000 0.000000 0.000000
0.000000 13.000000 0.000000
0.000000 0.000000 12.750000
AtomData: id type cartes_x cartes_y cartes_z fx fy fz
1 0 7.924040 6.321528 6.550312 -3.261481 0.211067 -0.628527
2 0 6.515755 5.794672 6.657907 1.306206 0.278740 -1.098280
3 1 8.108985 7.240676 7.050051 0.480281 0.909904 0.448310
4 1 8.715427 5.641055 6.400807 1.045357 -0.840798 -0.299311
5 1 6.432291 4.705372 6.534109 -0.275517 0.175722 0.002524
6 1 5.719671 6.295827 7.231549 0.352765 0.016814 -0.145439
7 2 6.968498 6.483982 5.413540 0.347157 -0.750689 1.707063
Energy
-37.912745370000
PlusStress: xx yy zz yz xz xy
0.001119 0.000130 0.001228 -0.000583 -0.000045 0.000175
Feature EFS_by vasp
Feature from database:p.cfg
Feature mindist 2.70
END_CFG

BEGIN_CFG
Size
7
Supercell
14.250000 0.000000 0.000000
0.000000 13.000000 0.000000
0.000000 0.000000 12.750000
AtomData: id type cartes_x cartes_y cartes_z fx fy fz
1 0 7.878327 6.519617 6.516880 0.349496 -1.382089 -0.790897
2 0 6.712132 5.564849 6.599823 0.454523 0.814155 0.283012
3 1 7.991402 7.413778 7.191364 -0.358764 -0.711059 -0.643748
4 1 8.856874 6.064783 6.110886 -1.215976 0.799542 0.660585
5 1 6.765872 4.483117 6.397611 0.524200 0.279759 -0.496463
6 1 5.931772 5.713978 7.366533 0.030547 0.588487 -0.324966
7 2 6.819800 6.520759 5.491623 0.203754 -0.376441 1.295115
Energy
-37.861121280000
PlusStress: xx yy zz yz xz xy
0.001540 0.001645 0.001371 -0.000015 -0.000046 0.000521
Feature EFS_by vasp
Feature from database:p.cfg
Feature mindist 2.70
END_CFG

BEGIN_CFG
Size
7
Supercell
14.250000 0.000000 0.000000
0.000000 13.000000 0.000000
0.000000 0.000000 12.750000
AtomData: id type cartes_x cartes_y cartes_z fx fy fz
1 0 7.811965 6.673417 6.474879 -0.891758 -1.771434 0.248246
2 0 6.935333 5.423762 6.494353 0.801334 0.826390 1.249156
3 1 7.775098 7.411329 7.266673 -0.543826 0.230719 0.343953
4 1 8.785321 6.614808 6.041473 0.733678 -0.145404 -0.836289
5 1 7.207772 4.437411 6.119141 0.495848 0.141562 -0.687116
6 1 6.300489 5.283287 7.375308 -0.421127 0.432773 -0.016654
7 2 6.669390 6.506766 5.618815 -0.177500 0.293962 -0.304544
Energy
-37.882498330000
PlusStress: xx yy zz yz xz xy
0.000206 0.001197 -0.000028 -0.000110 0.000427 0.000801
Feature EFS_by vasp
Feature from database:p.cfg
Feature mindist 2.70
END_CFG

BEGIN_CFG
Size
7
Supercell
14.250000 0.000000 0.000000
0.000000 13.000000 0.000000
0.000000 0.000000 12.750000
AtomData: id type cartes_x cartes_y cartes_z fx fy fz
1 0 7.730686 6.749645 6.462265 -0.576846 0.448069 0.388212
2 0 7.222324 5.367088 6.414788 -0.263934 0.551833 -0.761058
3 1 7.591812 7.303498 7.419159 -0.118366 -0.196930 -0.479837
4 1 8.601566 7.149927 5.892684 -0.518512 -0.618792 -0.015943
5 1 7.712736 4.642979 5.736856 -0.287837 0.247297 0.173463
6 1 6.682794 4.929588 7.279202 0.265301 0.288213 -0.329864
7 2 6.482451 6.474641 5.717682 1.492568 -0.720175 1.018811
Energy
-37.954879200000
PlusStress: xx yy zz yz xz xy
0.001466 0.001247 0.001136 -0.000295 0.000161 0.000077
Feature EFS_by vasp
Feature from database:p.cfg
Feature mindist 2.70
END_CFG

BEGIN_CFG
Size
7
Supercell
14.250000 0.000000 0.000000
0.000000 13.000000 0.000000
0.000000 0.000000 12.750000
AtomData: id type cartes_x cartes_y cartes_z fx fy fz
1 0 7.599931 6.878820 6.469725 -0.249780 -1.505221 -0.539812
2 0 7.451326 5.372984 6.230334 -0.345143 2.784671 -0.141470
3 1 7.517919 7.250717 7.483939 -0.180557 0.075986 0.401602
4 1 8.213908 7.507889 5.811979 -0.027531 -0.239931 -0.108477
5 1 7.935257 5.005629 5.332402 0.162811 -0.545669 0.034735
6 1 7.216132 4.757119 7.094069 0.081673 -0.334925 -0.049040
7 2 6.390303 6.342285 5.888394 0.545614 -0.231831 0.403243
Energy
-37.961160740000
PlusStress: xx yy zz yz xz xy
0.000665 0.001458 0.000406 -0.000056 0.000183 0.000148
Feature EFS_by vasp
Feature from database:p.cfg
Feature mindist 2.70
END_CFG

BEGIN_CFG
Size
7
Supercell
14.250000 0.000000 0.000000
0.000000 13.000000 0.000000
0.000000 0.000000 12.750000
AtomData: id type cartes_x cartes_y cartes_z fx fy fz
1 0 7.461268 6.946938 6.497471 0.551116 -0.940037 -0.435675
2 0 7.626611 5.516389 6.012698 0.189012 0.712921 1.276149
3 1 7.519143 7.237695 7.568860 -0.118146 -0.393413 -0.475700
4 1 7.796443 7.700224 5.781590 -0.169799 0.279992 0.010340
5 1 8.054910 5.313520 5.013174 -0.200256 0.057374 0.358136
6 1 7.758722 4.769130 6.821844 0.090161 0.043441 -0.591368
7 2 6.347436 6.152296 6.064499 -0.355774 0.235721 -0.140392
Energy
-37.976992280000
PlusStress: xx yy zz yz xz xy
0.000278 0.000968 0.001250 0.000453 -0.000176 0.000014
Feature EFS_by vasp
Feature from database:p.cfg
Feature mindist 2.70
END_CFG

BEGIN_CFG
Size
7
Supercell
14.250000 0.000000 0.000000
0.000000 13.000000 0.000000
0.000000 0.000000 12.750000
AtomData: id type cartes_x cartes_y cartes_z fx fy fz
1 0 7.373658 6.972444 6.506384 -0.946419 0.267180 -0.149543
2 0 7.743501 5.728571 5.859423 -0.114437 -0.543962 -0.460365
3 1 7.511860 7.182218 7.578860 0.084528 -0.261835 -0.258537
4 1 7.330728 7.877921 5.855953 -0.168818 -0.471558 0.409807
5 1 8.027186 5.742755 4.787354 -0.505549 0.178385 0.188871
6 1 8.266371 4.903796 6.348109 -0.152192 0.023959 0.528013
7 2 6.325024 5.930984 6.211319 1.785751 0.810299 -0.248819
Energy
-37.934417570000
PlusStress: xx yy zz yz xz xy
0.001409 0.000817 0.000736 0.000040 -0.000249 0.000383
Feature EFS_by vasp
Feature from database:p.cfg
Feature mindist 2.70
END_CFG

BEGIN_CFG
Size
7
Supercell
14.250000 0.000000 0.000000
0.000000 13.000000 0.000000
0.000000 0.000000 12.750000
AtomData: id type cartes_x cartes_y cartes_z fx fy fz
1 0 7.174141 6.981327 6.528842 1.255262 -0.130359 0.043444
2 0 7.756518 5.885585 5.709612 0.649568 0.581541 -1.048769
3 1 7.593783 7.085220 7.516999 0.104168 0.311138 0.615372
4 1 6.735050 7.863758 6.087985 -0.106378 0.399612 -0.342755
5 1 7.788797 5.983783 4.618344 -0.568363 0.215252 -0.148397
6 1 8.599718 5.229386 5.968652 -0.277396 0.078412 0.929968
7 2 6.491201 5.777981 6.330565 -1.064905 -1.461068 -0.049286
Energy
-37.906191840000
PlusStress: xx yy zz yz xz xy
0.000226 -0.000075 -0.000109 0.000181 -0.000405 -0.000674
Feature EFS_by vasp
Feature from database:p.cfg
Feature mindist 2.70
END_CFG

BEGIN_CFG
Size
7
Supercell
14.250000 0.000000 0.000000
0.000000 13.000000 0.000000
0.000000 0.000000 12.750000
AtomData: id type cartes_x cartes_y cartes_z fx fy fz
1 0 7.046550 6.966823 6.564177 0.204853 0.402134 0.236993
2 0 7.703732 6.102384 5.565864 0.303653 -0.376996 -0.043782
3 1 7.613017 7.186964 7.524678 -0.744939 0.072478 -1.040100
4 1 6.282639 7.673015 6.170885 0.422329 -0.109174 0.568311
5 1 7.430347 6.119243 4.489653 0.227860 0.195735 0.490327
6 1 8.698818 5.709996 5.836646 -0.134029 0.105856 -0.362893
7 2 6.669891 5.593178 6.422581 -0.285127 -0.301574 0.148893
Energy
-37.992682490000
PlusStress: xx yy zz yz xz xy
0.000680 0.000238 0.001265 -0.000034 0.000691 -0.000126
Feature EFS_by vasp
Feature from database:p.cfg
Feature mindist 2.70
END_CFG

BEGIN_CFG
Size
7
Supercell
14.250000 0.000000 0.000000
0.000000 13.000000 0.000000
0.000000 0.000000 12.750000
AtomData: id type cartes_x cartes_y cartes_z fx fy fz
1 0 6.911885 6.922590 6.580399 -0.949335 -1.206133 -0.031283
2 0 7.586413 6.305095 5.472060 -0.179619 -1.146072 0.600463
3 1 7.487963 7.291387 7.387950 0.602241 0.584853 0.967711
4 1 5.925472 7.307496 6.443354 -0.735874 0.618052 -0.035245
5 1 7.086423 6.213505 4.517488 0.266553 0.200780 -0.498765
6 1 8.659155 6.261642 5.603451 0.468427 -0.124753 -0.675953
7 2 6.913165 5.450160 6.485172 0.528875 1.058586 -0.317179
Energy
-37.900853590000
PlusStress: xx yy zz yz xz xy
-0.000280 0.000596 -0.000334 -0.000529 0.000164 0.000510
Feature EFS_by vasp
Feature from database:p.cfg
Feature mindist 2.70
END_CFG

BEGIN_CFG
Size
7
Supercell
14.250000 0.000000 0.000000
0.000000 13.000000 0.000000
0.000000 0.000000 12.750000
AtomData: id type cartes_x cartes_y cartes_z fx fy fz
1 0 6.727334 6.773708 6.645364 -0.164737 2.798449 2.031892
2 0 7.441676 6.374632 5.424132 -0.196259 1.298048 -1.086436
3 1 7.312037 7.390521 7.427242 -0.835503 -0.708743 -1.002465
4 1 5.604983 6.949220 6.713165 1.111484 -0.419212 -0.363985
5 1 6.748667 6.237824 4.580777 0.686438 -0.063998 -0.398607
6 1 8.503259 6.656277 5.319166 -0.404459 0.114075 -0.490000
7 2 7.222237 5.499735 6.466876 -0.194373 -3.033832 1.313819
Energy
-37.785008030000
PlusStress: xx yy zz yz xz xy
0.001598 -0.000817 -0.000342 0.000712 0.000538 0.000160
Feature EFS_by vasp
Feature from database:p.cfg
Feature mindist 2.70
END_CFG

BEGIN_CFG
Size
7
Supercell
14.250000 0.000000 0.000000
0.000000 13.000000 0.000000
0.000000 0.000000 12.750000
AtomData: id type cartes_x cartes_y cartes_z fx fy fz
1 0 6.623220 6.641861 6.680705 0.050792 -0.064548 0.667428
2 0 7.243569 6.481189 5.430551 1.268046 0.088591 -2.818585
3 1 6.935335 7.324126 7.397162 0.898893 1.505463 1.366338
4 1 5.607500 6.430239 6.731637 -2.122829 -0.712182 0.216290
5 1 6.626809 6.116490 4.601877 -0.013260 -0.077320 -0.122710
6 1 8.134621 7.024119 5.095562 -0.115139 0.303654 0.140429
7 2 7.503154 5.539900 6.448910 0.041353 -1.055739 0.553703
Energy
-37.819533530000
PlusStress: xx yy zz yz xz xy
-0.000827 -0.000616 -0.001461 -0.000331 0.000384 -0.000270
Feature EFS_by vasp
Feature from database:p.cfg
Feature mindist 2.70
END_CFG

BEGIN_CFG
Size
7
Supercell
14.250000 0.000000 0.000000
0.000000 13.000000 0.000000
0.000000 0.000000 12.750000
AtomData: id type cartes_x cartes_y cartes_z fx fy fz
1 0 6.562495 6.461774 6.723579 -2.479886 -1.231775 3.141555
2 0 7.075540 6.517316 5.419520 1.093501 -0.094933 -2.320909
3 1 6.665826 7.248822 7.527796 -0.013689 -0.541627 -0.936409
4 1 5.692342 5.727163 6.867971 0.626752 1.333888 0.095148
5 1 6.643269 5.931290 4.610679 -0.418085 -0.045415 -0.120201
6 1 7.649132 7.357360 5.042158 0.289570 0.375059 0.156877
7 2 7.715732 5.687365 6.411108 0.909823 0.194373 -0.015994
Energy
-37.836344890000
PlusStress: xx yy zz yz xz xy
-0.000144 0.000960 -0.000565 0.000329 0.000535 0.000324
Feature EFS_by vasp
Feature from database:p.cfg
Feature mindist 2.70
END_CFG

BEGIN_CFG
Size
7
Supercell
14.250000 0.000000 0.000000
0.000000 13.000000 0.000000
0.000000 0.000000 12.750000
AtomData: id type cartes_x cartes_y cartes_z fx fy fz
1 0 6.542940 6.191572 6.792546 -0.206873 0.724139 -0.093623
2 0 6.954238 6.500062 5.426667 -0.434334 0.566825 -1.423887
3 1 6.555569 7.015879 7.474648 -0.701385 0.430526 0.829703
4 1 5.981629 5.304715 6.942399 -0.953035 -0.740329 0.549544
5 1 6.653183 5.814555 4.615827 -0.018679 0.318028 0.057421
6 1 7.193566 7.542080 5.149208 -0.244013 -0.256241 -0.068875
7 2 7.838136 5.939868 6.345627 2.570443 -1.048929 0.152751
Energy
-37.895907610000
PlusStress: xx yy zz yz xz xy
-0.001087 0.000077 -0.000658 0.000200 0.000313 0.000388
Feature EFS_by vasp
Feature from database:p.cfg
Feature mindist 2.70
END_CFG

BEGIN_CFG
Size
7
Supercell
14.250000 0.000000 0.000000
0.000000 13.000000 0.000000
0.000000 0.000000 12.750000
AtomData: id type cartes_x cartes_y cartes_z fx fy fz
1 0 6.583422 5.948359 6.803152 0.839939 -0.142801 0.001998
2 0 6.788670 6.470918 5.464490 1.091422 0.188597 -0.182861
3 1 6.368437 6.770265 7.494645 -0.596429 -0.821331 0.642774
4 1 6.365531 4.851724 6.917775 -0.159866 1.129058 0.364805
5 1 6.728704 5.833929 4.597889 -0.232427 -0.276080 -0.485001
6 1 6.733016 7.539568 5.314359 -0.533728 0.402192 -0.336334
7 2 7.943802 6.186931 6.300361 -0.396377 -0.469384 -0.000606
Energy
-37.849820440000
PlusStress: xx yy zz yz xz xy
0.000506 0.001017 -0.000557 0.000225 0.000154 0.000278
Feature EFS_by vasp
Feature from database:p.cfg
Feature mindist 2.70
END_CFG

BEGIN_CFG
Size
7
Supercell
14.250000 0.000000 0.000000
0.000000 13.000000 0.000000
0.000000 0.000000 12.750000
AtomData: id type cartes_x cartes_y cartes_z fx fy fz
1 0 6.743515 5.767570 6.754553 -0.244907 -2.837111 3.155989
2 0 6.695068 6.419509 5.518922 -0.629010 1.043030 -2.769276
3 1 6.224565 6.127706 7.664462 0.269772 0.569558 -0.347673
4 1 6.848912 4.664143 6.878231 -0.009904 0.387483 -0.534189
5 1 6.798449 5.837233 4.569197 -0.391735 0.525858 0.511475
6 1 6.112481 7.373673 5.508977 0.538454 -0.420371 -0.400896
7 2 7.907093 6.423285 6.277469 0.471963 0.733754 0.379606
Energy
-37.854332750000
PlusStress: xx yy zz yz xz xy
0.000352 0.000344 -0.000530 0.000760 -0.000430 -0.000384
Feature EFS_by vasp
Feature from database:p.cfg
Feature mindist 2.70
END_CFG

BEGIN_CFG
Size
7
Supercell
14.250000 0.000000 0.000000
0.000000 13.000000 0.000000
0.000000 0.000000 12.750000
AtomData: id type cartes_x cartes_y cartes_z fx fy fz
1 0 6.971764 5.576595 6.730057 -0.404302 -0.573355 -0.316506
2 0 6.614522 6.385192 5.544737 -0.907447 -0.798483 0.454279
3 1 6.508781 5.646222 7.688146 -0.733905 0.728472 0.827734
4 1 7.385157 4.598054 6.634581 0.557416 -0.955238 -0.585487
5 1 6.774248 5.958512 4.576272 -0.007146 -0.257500 -0.853675
6 1 5.827437 7.104092 5.665816 -0.588329 0.564443 -0.139267
7 2 7.764264 6.635901 6.279983 2.094966 1.296054 0.612192
Energy
-37.894075800000
PlusStress: xx yy zz yz xz xy
-0.000938 -0.000600 -0.000411 -0.000423 -0.000049 -0.000038
Feature EFS_by vasp
Feature from database:p.cfg
Feature mindist 2.70
END_CFG

BEGIN_CFG
Size
7
Supercell
14.250000 0.000000 0.000000
0.000000 13.000000 0.000000
0.000000 0.000000 12.750000
AtomData: id type cartes_x cartes_y cartes_z fx fy fz
1 0 7.209354 5.461376 6.605586 0.699908 -0.209510 0.909135
2 0 6.495317 6.251198 5.618661 0.243723 1.270808 -0.432640
3 1 6.746842 5.375193 7.635670 0.592119 -0.270705 -1.009519
4 1 7.926505 4.637858 6.243314 -0.954321 1.099475 0.662211
5 1 6.737345 6.068191 4.546039 -0.484372 0.145164 0.525887
6 1 5.554494 6.795418 5.883777 0.445369 -0.681204 -0.393436
7 2 7.646046 6.849871 6.333928 -0.531854 -1.342145 -0.243820
Energy
-37.899076850000
PlusStress: xx yy zz yz xz xy
0.001229 0.001493 0.001115 0.000595 -0.000692 -0.000227
Feature EFS_by vasp
Feature from database:p.cfg
Feature mindist 2.70
END_CFG

BEGIN_CFG
Size
7
Supercell
14.250000 0.000000 0.000000
0.000000 13.000000 0.000000
0.000000 0.000000 12.750000
AtomData: id type cartes_x cartes_y cartes_z fx fy fz
1 0 7.487320 5.477406 6.476269 -1.257412 1.582407 -1.007364
2 0 6.433972 6.168462 5.684582 1.123665 -0.181740 0.432927
3 1 7.198627 5.091028 7.411674 -0.125532 -0.726448 1.332001
4 1 8.291121 5.074425 5.932070 1.202569 -0.917397 -0.523639
5 1 6.522159 6.179953 4.606377 0.050142 0.086566 -0.415378
6 1 5.437165 6.236931 6.079824 -0.590667 0.114816 0.308856
7 2 7.453188 6.918342 6.398947 -0.405058 0.049151 -0.128306
Energy
-37.970072250000
PlusStress: xx yy zz yz xz xy
0.000031 0.000084 -0.000297 0.000102 0.000574 0.000269
Feature EFS_by vasp
Feature from database:p.cfg
Feature mindist 2.70
END_CFG

BEGIN_CFG
Size
7
Supercell
14.250000 0.000000 0.000000
0.000000 13.000000 0.000000
0.000000 0.000000 12.750000
AtomData: id type cartes_x cartes_y cartes_z fx fy fz
1 0 7.728105 5.585984 6.319021 -0.385560 -0.501176 -0.651944
2 0 6.395283 6.063425 5.758056 -0.169715 -1.164046 0.110949
3 1 7.745275 4.946813 7.270227 0.059341 0.768153 -1.272563
4 1 8.570841 5.500340 5.568923 -0.635000 -0.170367 0.936079
5 1 6.222246 6.261549 4.671777 0.549140 -0.009383 0.579407
6 1 5.444885 5.712679 6.250329 0.810645 0.460841 -0.011527
7 2 7.268091 6.925743 6.478629 -0.228257 0.623197 0.313986
Energy
-37.892840870000
PlusStress: xx yy zz yz xz xy
0.001635 0.000456 0.001683 -0.000700 0.000120 -0.000036
Feature EFS_by vasp
Feature from database:p.cfg
Feature mindist 2.70
END_CFG

BEGIN_CFG
Size
7
Supercell
14.250000 0.000000 0.000000
0.000000 13.000000 0.000000
0.000000 0.000000 12.750000
AtomData: id type cartes_x cartes_y cartes_z fx fy fz
1 0 7.858924 5.740919 6.097917 -1.025456 0.803583 0.495857
2 0 6.425767 5.877746 5.837338 0.109249 0.715336 0.525915
3 1 8.188061 5.040129 6.837480 -0.043159 -0.403587 0.972438
4 1 8.647790 5.873031 5.381095 0.116252 0.626909 -0.850499
5 1 6.009974 6.166633 4.880286 0.258730 0.309454 -0.532637
6 1 5.682312 5.318861 6.406570 0.148271 -0.235389 0.372726
7 2 7.112947 6.950243 6.601082 0.429695 -1.804026 -0.981633
Energy
-37.892914980000
PlusStress: xx yy zz yz xz xy
0.000935 0.001070 -0.000118 0.000920 0.000064 -0.000259
Feature EFS_by vasp
Feature from database:p.cfg
Feature mindist 2.70
END_CFG

BEGIN_CFG
Size
7
Supercell
14.250000 0.000000 0.000000
0.000000 13.000000 0.000000
0.000000 0.000000 12.750000
AtomData: id type cartes_x cartes_y cartes_z fx fy fz
1 0 7.931570 6.008712 5.941553 -0.290369 -0.883968 0.023179
2 0 6.444401 5.741202 5.926810 1.244767 -0.048721 -0.597716
3 1 8.600044 5.334393 6.520803 -0.522397 0.313039 0.155151
4 1 8.496125 6.409972 5.078716 -0.654611 0.344213 0.122921
5 1 5.883146 5.983366 5.001854 0.134300 0.148132 0.475715
6 1 6.067344 4.878795 6.497176 0.023253 0.288651 0.079325
7 2 7.012017 6.838724 6.676727 0.061276 -0.153022 -0.252199
Energy
-37.966965300000
PlusStress: xx yy zz yz xz xy
0.001658 0.000654 0.000719 0.000033 -0.000066 0.000090
Feature EFS_by vasp
Feature from database:p.cfg
Feature mindist 2.70
END_CFG

BEGIN_CFG
Size
7
Supercell
14.250000 0.000000 0.000000
0.000000 13.000000 0.000000
0.000000 0.000000 12.750000
AtomData: id type cartes_x cartes_y cartes_z fx fy fz
1 0 7.910866 6.268728 5.786550 -1.700201 -0.513181 0.222255
2 0 6.544834 5.570775 5.986714 2.276894 1.050350 0.010729
3 1 8.849792 5.817851 6.162479 -0.477568 0.117629 0.042379
4 1 8.000151 6.931735 4.922717 0.126142 0.010272 -0.049761
5 1 5.770718 5.799548 5.241409 -0.000048 -0.457323 0.229670
6 1 6.622760 4.622750 6.547246 -0.558968 0.227943 -0.295280
7 2 6.939868 6.736135 6.762161 0.335956 -0.427048 -0.153694
Energy
-37.927420300000
PlusStress: xx yy zz yz xz xy
0.001762 0.000921 0.000637 -0.000153 0.000000 0.000076
Feature EFS_by vasp
Feature from database:p.cfg
Feature mindist 2.70
END_CFG

BEGIN_CFG
Size
7
Supercell
14.250000 0.000000 0.000000
0.000000 13.000000 0.000000
0.000000 0.000000 12.750000
AtomData: id type cartes_x cartes_y cartes_z fx fy fz
1 0 7.732670 6.505980 5.651933 -0.732721 -0.263173 0.532665
2 0 6.769077 5.442521 6.004566 0.072361 0.911551 0.379360
3 1 8.788116 6.334543 5.826028 0.360303 -0.046845 0.201420
4 1 7.521171 7.205262 4.834454 -0.200553 -0.004026 0.121425
5 1 5.820638 5.374994 5.472030 -0.151129 0.125596 -0.099847
6 1 7.084842 4.501568 6.457186 0.258740 -0.000472 0.092150
7 2 6.907092 6.639031 6.867574 0.391472 -0.716086 -1.216344
Energy
-38.024127340000
PlusStress: xx yy zz yz xz xy
0.000399 0.000937 0.000992 0.000213 -0.000365 0.000210
Feature EFS_by vasp
Feature from database:p.cfg
Feature mindist 2.70
END_CFG

BEGIN_CFG
Size
7
Supercell
14.250000 0.000000 0.000000
0.000000 13.000000 0.000000
0.000000 0.000000 12.750000
AtomData: id type cartes_x cartes_y cartes_z fx fy fz
1 0 7.491510 6.708431 5.604548 0.540337 -0.577382 -0.492064
2 0 6.981581 5.375087 6.028651 0.284820 -0.142633 -0.786231
3 1 8.584113 6.897985 5.563005 -0.389198 -0.123587 0.190376
4 1 6.923954 7.291118 4.855949 -0.096326 -0.087412 0.413932
5 1 6.092183 4.925486 5.549331 -0.404062 0.851438 0.375069
6 1 7.626251 4.521374 6.274031 0.547246 0.505199 0.426405
7 2 6.927870 6.523951 6.906776 -0.471489 -0.418997 -0.113284
Energy
-37.917125510000
PlusStress: xx yy zz yz xz xy
0.000328 0.001434 0.000635 0.000090 0.000048 0.000360
Feature EFS_by vasp
Feature from database:p.cfg
Feature mindist 2.70
END_CFG

BEGIN_CFG
Size
7
Supercell
14.250000 0.000000 0.000000
0.000000 13.000000 0.000000
0.000000 0.000000 12.750000
AtomData: id type cartes_x cartes_y cartes_z fx fy fz
1 0 7.237698 6.828368 5.567080 -0.273537 -2.088818 1.160450
2 0 7.231099 5.356415 6.008429 0.424740 1.024291 -0.433767
3 1 8.137203 7.423506 5.410543 0.192342 -0.171966 0.067917
4 1 6.341842 7.119207 5.044458 -0.339290 0.416311 -0.404001
5 1 6.346186 4.752801 5.722399 0.325286 0.211745 0.095930
6 1 8.179246 4.759124 6.142814 -0.720810 0.767821 0.023424
7 2 6.944970 6.421765 6.945215 0.388613 -0.158519 -0.490584
Energy
-37.931540350000
PlusStress: xx yy zz yz xz xy
0.000761 0.001873 0.000682 -0.000226 -0.000189 -0.000010
Feature EFS_by vasp
Feature from database:p.cfg
Feature mindist 2.70
END_CFG

BEGIN_CFG
Size
7
Supercell
14.250000 0.000000 0.000000
0.000000 13.000000 0.000000
0.000000 0.000000 12.750000
AtomData: id type cartes_x cartes_y cartes_z fx fy fz
1 0 6.958231 6.814228 5.576984 0.018687 -1.171898 1.205292
2 0 7.465774 5.449000 5.919381 -1.398877 1.686154 0.767808
3 1 7.724573 7.567271 5.338938 -0.427770 0.056634 0.069664
4 1 5.925901 6.898620 5.157022 0.794260 0.134117 0.235810
5 1 6.788318 4.623700 5.747542 -0.019900 -0.474063 -0.095353
6 1 8.522986 5.268873 5.948874 0.645298 -0.205718 -0.054264
7 2 6.981264 6.343888 7.012617 0.385976 -0.021869 -2.117998
Energy
-37.935278390000
PlusStress: xx yy zz yz xz xy
0.000847 0.000804 0.001653 -0.000137 -0.000021 -0.000189
Feature EFS_by vasp
Feature from database:p.cfg
Feature mindist 2.70
END_CFG

BEGIN_CFG
Size
7
Supercell
14.250000 0.000000 0.000000
0.000000 13.000000 0.000000
0.000000 0.000000 12.750000
AtomData: id type cartes_x cartes_y cartes_z fx fy fz
1 0 6.702156 6.729758 5.669690 0.976932 -0.102247 -0.134523
2 0 7.654055 5.596722 5.872977 -0.202889 -0.000155 -0.675749
3 1 7.155020 7.687746 5.408411 -0.026686 0.215812 -0.031895
4 1 5.692434 6.599924 5.299094 -0.398378 -0.329272 0.119245
5 1 7.292335 4.537890 5.644370 0.612947 1.209511 0.437686
6 1 8.735116 5.874529 5.721902 -0.804095 -0.669704 0.162395
7 2 7.037585 6.275055 6.985271 -0.160362 -0.326405 0.136493
Energy
-37.959045580000
PlusStress: xx yy zz yz xz xy
0.000942 0.001156 0.000390 0.000183 0.000070 0.000183
Feature EFS_by vasp
Feature from database:p.cfg
Feature mindist 2.70
END_CFG

BEGIN_CFG
Size
7
Supercell
14.250000 0.000000 0.000000
0.000000 13.000000 0.000000
0.000000 0.000000 12.750000
AtomData: id type cartes_x cartes_y cartes_z fx fy fz
1 0 6.523905 6.582026 5.746373 -1.072494 0.637179 -0.597779
2 0 7.783439 5.826649 5.781999 -0.561897 0.785986 0.166575
3 1 6.489421 7.668732 5.500411 0.506748 -0.387261 0.248286
4 1 5.527979 6.155063 5.528027 0.437064 -0.426797 -0.050166
5 1 7.834361 4.783468 5.623558 -0.150714 -1.337131 -0.414133
6 1 8.699366 6.354642 5.609034 0.709176 0.471424 -0.147169
7 2 7.094505 6.196989 6.984299 0.128632 0.255667 0.808632
Energy
-37.961726860000
PlusStress: xx yy zz yz xz xy
0.000317 -0.000091 -0.000045 -0.000263 0.000070 -0.000307
Feature EFS_by vasp
Feature from database:p.cfg