BEGIN_CFG
Size
9
Supercell
15.750000 0.000000 0.000000
0.000000 14.000000 0.000000
0.000000 0.000000 12.750000
AtomData: id type cartes_x cartes_y cartes_z fx fy fz
1 0 8.992000 6.942000 5.975000 3.120509 0.647647 -0.966786
2 0 7.822000 7.678000 6.523000 0.788653 3.415230 0.370109
3 0 7.118000 6.430000 6.530000 -2.774214 -1.714823 0.633265
4 1 7.416000 8.413000 5.795000 0.315850 0.168496 0.589622
5 1 8.023000 8.080000 7.539000 -0.081935 0.393161 -0.554278
6 1 6.258000 6.409000 5.824000 0.133787 -0.373880 0.446224
7 1 6.860000 6.079000 7.554000 -0.204353 -0.189235 -0.527805
8 2 10.161000 7.254000 5.627000 -3.849458 -1.851997 0.985516
9 2 8.225000 5.715000 6.008000 2.510872 -0.524640 -0.972243
Energy
-54.051995450000
PlusStress: xx yy zz yz xz xy
0.001355 -0.001036 0.001126 -0.000658 0.000100 0.000607
Feature EFS_by vasp
Feature from database:p.cfg
Feature mindist 2.70
END_CFG

BEGIN_CFG
Size
9
Supercell
15.750000 0.000000 0.000000
0.000000 14.000000 0.000000
0.000000 0.000000 12.750000
AtomData: id type cartes_x cartes_y cartes_z fx fy fz
1 0 9.027819 6.972029 6.046924 -0.541485 -0.754286 -0.162718
2 0 7.806338 7.793049 6.548141 0.047484 -1.396794 -0.083826
3 0 7.020421 6.416350 6.408429 0.773449 1.315795 -0.991803
4 1 7.540607 8.575886 5.847159 -0.257060 0.312381 -0.228288
5 1 7.917941 8.186662 7.552200 -0.000948 0.228104 0.372213
6 1 6.187626 6.334440 5.680936 0.311108 0.319054 0.109420
7 1 6.735098 5.906487 7.314092 -0.005947 -0.144909 0.726202
8 2 10.214892 7.047223 5.828616 -0.828480 0.337788 0.237265
9 2 8.240211 5.821710 5.844632 0.511838 -0.219124 0.008566
Energy
-54.492249990000
PlusStress: xx yy zz yz xz xy
0.001795 0.000978 0.000296 0.000093 -0.000084 0.000563
Feature EFS_by vasp
Feature from database:p.cfg
Feature mindist 2.70
END_CFG

BEGIN_CFG
Size
9
Supercell
15.750000 0.000000 0.000000
0.000000 14.000000 0.000000
0.000000 0.000000 12.750000
AtomData: id type cartes_x cartes_y cartes_z fx fy fz
1 0 9.053440 6.931488 6.110528 -3.659157 -0.497217 0.255188
2 0 7.824005 7.744706 6.582674 -0.070150 1.623318 0.504996
3 0 6.975073 6.563566 6.205842 0.789475 -1.533829 0.707029
4 1 7.598534 8.689723 6.020699 0.357469 -0.536176 0.388981
5 1 7.806140 7.956877 7.674667 0.227583 0.082937 -0.439202
6 1 6.298236 6.653792 5.368192 -0.110126 0.103975 -0.592109
7 1 6.453571 5.986999 7.023433 0.560695 0.515986 -0.506948
8 2 10.212066 6.973765 5.958150 2.939727 0.615387 -0.145296
9 2 8.258633 5.833635 5.812718 -1.027281 -0.392643 -0.177857
Energy
-54.431089240000
PlusStress: xx yy zz yz xz xy
0.000311 0.000303 0.000793 -0.000432 -0.000285 -0.000480
Feature EFS_by vasp
Feature from database:p.cfg
Feature mindist 2.70
END_CFG

BEGIN_CFG
Size
9
Supercell
15.750000 0.000000 0.000000
0.000000 14.000000 0.000000
0.000000 0.000000 12.750000
AtomData: id type cartes_x cartes_y cartes_z fx fy fz
1 0 9.041524 6.824136 6.135171 1.265539 1.337740 0.350495
2 0 7.861218 7.793644 6.605998 0.967828 -2.972506 -0.436398
3 0 6.972389 6.695250 6.031536 0.601721 -0.127090 -1.803004
4 1 7.798430 8.789972 6.264350 0.094289 1.207691 -0.779914
5 1 7.897536 7.777415 7.686279 -0.178628 0.093088 0.639328
6 1 6.423246 6.867949 5.070696 0.422888 0.219658 0.592208
7 1 6.327052 6.205589 6.712638 -0.697513 -0.780914 0.926342
8 2 10.272832 6.955187 6.205996 -3.042543 -1.181491 -0.553989
9 2 8.162779 5.775115 5.681778 0.575801 2.194204 1.064276
Energy
-54.189397870000
PlusStress: xx yy zz yz xz xy
0.002633 0.001516 0.000585 0.001001 0.000410 -0.000140
Feature EFS_by vasp
Feature from database:p.cfg
Feature mindist 2.70
END_CFG

BEGIN_CFG
Size
9
Supercell
15.750000 0.000000 0.000000
0.000000 14.000000 0.000000
0.000000 0.000000 12.750000
AtomData: id type cartes_x cartes_y cartes_z fx fy fz
1 0 9.002319 6.854178 6.224158 5.154528 -0.631920 1.048041
2 0 7.799048 7.763149 6.585488 2.468910 3.051801 0.895391
3 0 7.040716 6.715756 5.933366 -3.280537 -0.907048 0.190866
4 1 7.938523 8.747123 6.017742 -0.395057 -1.005210 0.565744
5 1 7.628921 8.015782 7.659081 0.161787 -0.284189 -0.555079
6 1 6.468478 7.027867 5.057566 -0.359759 -0.191043 -0.123083
7 1 6.428856 6.133595 6.681475 0.159071 0.231319 -0.843556
8 2 10.272362 6.712855 6.376197 -5.185573 0.914906 -0.549746
9 2 8.186901 5.984679 5.553748 1.290129 -1.183655 -0.631417
Energy
-54.071067240000
PlusStress: xx yy zz yz xz xy
0.001761 0.000164 0.000845 -0.000874 -0.000375 -0.000562
Feature EFS_by vasp
Feature from database:p.cfg
Feature mindist 2.70
END_CFG

BEGIN_CFG
Size
9
Supercell
15.750000 0.000000 0.000000
0.000000 14.000000 0.000000
0.000000 0.000000 12.750000
AtomData: id type cartes_x cartes_y cartes_z fx fy fz
1 0 9.018478 6.795408 6.289232 0.398097 -0.357092 -0.319075
2 0 7.911639 7.748044 6.616486 -0.698812 -0.324449 0.342180
3 0 6.975729 6.822370 5.753882 1.906467 0.438299 1.129926
4 1 8.092463 8.734764 6.235716 0.030125 0.792632 -0.508645
5 1 7.754534 7.861187 7.682396 -0.379378 -0.114058 0.515746
6 1 6.626072 7.308740 4.856560 -0.385035 0.002134 -0.511544
7 1 6.234813 6.201469 6.275243 0.016888 0.168873 -0.070717
8 2 10.195154 6.646950 6.550536 -1.013997 -0.004861 -0.318686
9 2 8.201049 6.014644 5.464897 0.139854 -0.602071 -0.262871
Energy
-54.488078130000
PlusStress: xx yy zz yz xz xy
0.001658 0.000147 0.000264 0.000011 0.000539 0.000405
Feature EFS_by vasp
Feature from database:p.cfg
Feature mindist 2.70
END_CFG

BEGIN_CFG
Size
9
Supercell
15.750000 0.000000 0.000000
0.000000 14.000000 0.000000
0.000000 0.000000 12.750000
AtomData: id type cartes_x cartes_y cartes_z fx fy fz
1 0 9.033874 6.722345 6.309522 -5.071019 1.066796 -0.037639
2 0 7.888482 7.708214 6.683768 -0.129387 1.186541 -0.303901
3 0 7.102605 6.993655 5.601255 0.228849 0.385827 -0.859837
4 1 8.096462 8.783936 6.428873 0.096530 -0.703757 0.307428
5 1 7.414537 7.690669 7.697273 0.672205 -0.291467 -0.449931
6 1 6.985168 7.587510 4.647870 -0.069189 -0.571644 0.720170
7 1 6.170163 6.539408 5.923171 -0.269610 -0.345119 -0.098898
8 2 10.126939 6.593462 6.668026 3.775914 -1.067229 0.507827
9 2 8.182443 5.993337 5.418288 0.771282 0.336724 0.218231
Energy
-54.335841440000
PlusStress: xx yy zz yz xz xy
-0.000459 0.001000 0.001092 -0.000032 -0.000620 0.000103
Feature EFS_by vasp
Feature from database:p.cfg
Feature mindist 2.70
END_CFG

BEGIN_CFG
Size
9
Supercell
15.750000 0.000000 0.000000
0.000000 14.000000 0.000000
0.000000 0.000000 12.750000
AtomData: id type cartes_x cartes_y cartes_z fx fy fz
1 0 9.000443 6.739323 6.405012 -1.210358 0.042131 -0.785741
2 0 7.790334 7.807545 6.679782 1.115450 -1.674328 -1.240222
3 0 7.163079 7.058056 5.476860 -0.648778 -0.505683 0.837029
4 1 7.947782 8.872210 6.548481 0.469809 0.300965 -0.152733
5 1 7.355726 7.643076 7.643710 -0.479408 -0.291923 0.790407
6 1 7.056632 7.652688 4.591337 0.188718 0.523829 -0.811416
7 1 6.179749 6.521951 5.606902 0.894069 0.152812 0.268096
8 2 10.058707 6.321338 6.770599 0.442581 0.647368 0.798684
9 2 8.311955 6.124280 5.359579 -0.755911 0.798259 0.292195
Energy
-54.336741170000
PlusStress: xx yy zz yz xz xy
0.001202 0.001337 0.000261 0.000699 -0.000150 -0.000616
Feature EFS_by vasp
Feature from database:p.cfg
Feature mindist 2.70
END_CFG

BEGIN_CFG
Size
9
Supercell
15.750000 0.000000 0.000000
0.000000 14.000000 0.000000
0.000000 0.000000 12.750000
AtomData: id type cartes_x cartes_y cartes_z fx fy fz
1 0 8.921696 6.673417 6.368742 2.396532 -1.700733 2.508587
2 0 7.919086 7.685648 6.673175 -0.986354 1.602582 0.806475
3 0 7.208420 7.182174 5.394819 0.719757 0.416869 -0.636774
4 1 8.427069 8.667077 6.610318 -0.496610 0.088786 -0.153073
5 1 7.464059 7.620000 7.703930 0.089245 -0.088507 -1.013627
6 1 7.095120 7.823115 4.485722 0.390056 -0.024979 0.666793
7 1 6.299252 6.611805 5.473693 -0.542038 -0.449016 0.489663
8 2 9.887378 6.254072 7.021478 -1.366907 0.451611 -1.797112
9 2 8.365108 6.237349 5.209773 -0.196135 -0.315590 -0.871961
Energy
-54.323204040000
PlusStress: xx yy zz yz xz xy
0.000812 -0.000008 0.001455 -0.000379 0.000622 0.000177
Feature EFS_by vasp
Feature from database:p.cfg
Feature mindist 2.70
END_CFG

BEGIN_CFG
Size
9
Supercell
15.750000 0.000000 0.000000
0.000000 14.000000 0.000000
0.000000 0.000000 12.750000
AtomData: id type cartes_x cartes_y cartes_z fx fy fz
1 0 8.857928 6.621123 6.490639 2.702599 -1.782484 -0.133637
2 0 7.852059 7.695700 6.675178 -0.451881 0.774122 -0.336853
3 0 7.373597 7.311821 5.279767 -0.520718 0.271355 -0.602859
4 1 8.236354 8.722708 6.768133 0.100326 -0.174217 0.151606
5 1 7.136950 7.491617 7.445456 -0.508680 -0.089992 0.847669
6 1 7.578967 8.084636 4.524505 -0.164548 -0.065589 -0.100327
7 1 6.355828 6.880684 5.144669 0.400413 0.253916 0.204364
8 2 9.838206 6.129414 7.056515 -2.096461 1.013526 -0.917928
9 2 8.387058 6.267791 5.192525 0.553033 -0.218047 0.891131
Energy
-54.494580010000
PlusStress: xx yy zz yz xz xy
0.000978 0.000595 0.000705 -0.000096 0.000665 0.000181
Feature EFS_by vasp
Feature from database:p.cfg
Feature mindist 2.70
END_CFG

BEGIN_CFG
Size
9
Supercell
15.750000 0.000000 0.000000
0.000000 14.000000 0.000000
0.000000 0.000000 12.750000
AtomData: id type cartes_x cartes_y cartes_z fx fy fz
1 0 8.826564 6.563118 6.566755 -1.117643 0.617458 -2.760813
2 0 7.797229 7.709366 6.674663 -1.167635 0.126753 -0.111092
3 0 7.509284 7.450213 5.177902 0.217791 -1.401345 0.635402
4 1 8.162337 8.728495 6.858536 0.195910 -0.181503 0.420869
5 1 6.884295 7.487347 7.295691 0.901624 0.171533 -0.122403
6 1 7.870364 8.170263 4.456227 -0.137812 0.569187 -0.249937
7 1 6.545817 6.982738 4.920859 -0.162085 0.621505 0.009271
8 2 9.712279 5.983987 7.096256 0.690656 -0.361798 1.391052
9 2 8.466161 6.330788 5.194465 0.594717 -0.174462 0.782251
Energy
-54.385537220000
PlusStress: xx yy zz yz xz xy
0.000636 0.000599 0.000864 0.000079 -0.000188 0.000299
Feature EFS_by vasp
Feature from database:p.cfg
Feature mindist 2.70
END_CFG

BEGIN_CFG
Size
9
Supercell
15.750000 0.000000 0.000000
0.000000 14.000000 0.000000
0.000000 0.000000 12.750000
AtomData: id type cartes_x cartes_y cartes_z fx fy fz
1 0 8.850573 6.499165 6.462664 -4.022560 3.214706 -1.598307
2 0 7.845727 7.658654 6.662439 0.528168 -0.192962 -0.015399
3 0 7.557052 7.545379 5.175100 2.206658 -0.625117 -1.041001
4 1 8.453997 8.478352 7.021573 -0.288215 0.844923 0.149108
5 1 7.047452 7.357796 7.343279 -0.179537 0.331051 0.119712
6 1 7.942690 8.235134 4.348023 -0.985131 -0.143813 1.356918
7 1 6.653626 7.011410 4.939382 -0.879807 0.227532 -0.313229
8 2 9.436554 5.905580 7.270554 2.840101 -2.747286 1.683851
9 2 8.611913 6.441717 5.102028 0.779296 -0.909036 -0.338399
Energy
-54.040657470000
PlusStress: xx yy zz yz xz xy
0.000162 -0.000270 0.000249 -0.000142 -0.000616 0.000624
Feature EFS_by vasp
Feature from database:p.cfg
Feature mindist 2.70
END_CFG

BEGIN_CFG
Size
9
Supercell
15.750000 0.000000 0.000000
0.000000 14.000000 0.000000
0.000000 0.000000 12.750000
AtomData: id type cartes_x cartes_y cartes_z fx fy fz
1 0 8.683866 6.509537 6.597323 2.577407 -1.923312 -1.075334
2 0 7.743800 7.770183 6.615826 0.888992 -0.945484 0.817633
3 0 7.772039 7.601415 5.122985 -1.104605 -0.853781 -0.960900
4 1 8.211307 8.704328 7.029042 -0.311443 -0.769531 -0.210510
5 1 6.808719 7.519857 7.118085 -0.245912 0.209591 0.157408
6 1 8.177086 8.438574 4.615843 0.687217 0.975642 -0.812573
7 1 6.821268 7.298532 4.603771 0.537151 0.143969 0.533080
8 2 9.371526 5.698384 7.224772 -2.006185 2.164585 -0.342231
9 2 8.722175 6.460425 5.138682 -1.007840 0.984781 1.899804
Energy
-54.253032750000
PlusStress: xx yy zz yz xz xy
0.001343 0.001841 0.000964 0.000491 0.000262 -0.000804
Feature EFS_by vasp
Feature from database:p.cfg
Feature mindist 2.70
END_CFG

BEGIN_CFG
Size
9
Supercell
15.750000 0.000000 0.000000
0.000000 14.000000 0.000000
0.000000 0.000000 12.750000
AtomData: id type cartes_x cartes_y cartes_z fx fy fz
1 0 8.669049 6.457566 6.495317 0.412733 -1.911397 3.120794
2 0 7.749423 7.642008 6.615204 -0.895803 0.566224 -0.534916
3 0 7.981175 7.741419 5.111294 0.152891 1.092937 -1.400864
4 1 8.124598 8.464563 7.197590 0.262703 0.495659 0.512937
5 1 6.685161 7.454514 6.887654 0.608694 -0.200138 0.017998
6 1 8.616770 8.562545 4.672551 -0.115073 -0.463263 0.826261
7 1 7.159754 7.673608 4.394102 -0.525217 -0.311618 0.234321
8 2 9.180826 5.687836 7.323545 -0.768737 1.346828 -2.157520
9 2 8.727287 6.488986 5.139154 0.866432 -0.624477 -0.599641
Energy
-54.395664900000
PlusStress: xx yy zz yz xz xy
0.000722 0.000460 0.000844 -0.000758 0.000110 0.000032
Feature EFS_by vasp
Feature from database:p.cfg
Feature mindist 2.70
END_CFG

BEGIN_CFG
Size
9
Supercell
15.750000 0.000000 0.000000
0.000000 14.000000 0.000000
0.000000 0.000000 12.750000
AtomData: id type cartes_x cartes_y cartes_z fx fy fz
1 0 8.599147 6.436402 6.549711 0.741363 0.034247 -1.520679
2 0 7.776668 7.638895 6.597467 -0.608710 2.351713 -0.521392
3 0 8.065206 7.807307 5.063484 0.450662 -0.885459 1.215300
4 1 8.141879 8.491960 7.219249 -0.052573 -0.587275 -0.169039
5 1 6.753213 7.435574 6.878874 -0.631612 -0.039970 0.096617
6 1 8.703023 8.641854 4.784359 0.220752 0.277678 0.022529
7 1 7.245991 7.712823 4.345107 -0.135235 -0.320118 0.072492
8 2 8.953468 5.582138 7.294140 0.432665 -1.001716 0.789070
9 2 8.907473 6.555511 5.172201 -0.403557 0.154293 0.000240
Energy
-54.476823760000
PlusStress: xx yy zz yz xz xy
0.000063 0.000102 0.001149 -0.000042 0.000034 0.000374
Feature EFS_by vasp
Feature from database:p.cfg
Feature mindist 2.70
END_CFG

BEGIN_CFG
Size
9
Supercell
15.750000 0.000000 0.000000
0.000000 14.000000 0.000000
0.000000 0.000000 12.750000
AtomData: id type cartes_x cartes_y cartes_z fx fy fz
1 0 8.551890 6.404083 6.560849 -1.265639 3.149785 -2.470026
2 0 7.702135 7.776201 6.543424 0.962161 -1.378858 0.224102
3 0 8.248912 7.789455 5.115054 -1.217901 0.947580 -1.181532
4 1 8.202857 8.498981 7.199353 -0.178723 0.119241 0.063442
5 1 6.616046 7.713360 6.759525 0.472786 -0.077632 -0.208196
6 1 8.937044 8.638203 4.924785 -0.574276 -0.101841 -0.479553
7 1 7.468378 7.534898 4.329599 0.732355 0.986736 0.478800
8 2 8.766103 5.464174 7.201227 0.600148 -3.041925 2.796018
9 2 9.024594 6.601612 5.259505 0.468872 -0.615317 0.785115
Energy
-54.271397620000
PlusStress: xx yy zz yz xz xy
0.001349 -0.000525 -0.000184 0.001641 -0.000292 0.000395
Feature EFS_by vasp
Feature from database:p.cfg
Feature mindist 2.70
END_CFG

BEGIN_CFG
Size
9
Supercell
15.750000 0.000000 0.000000
0.000000 14.000000 0.000000
0.000000 0.000000 12.750000
AtomData: id type cartes_x cartes_y cartes_z fx fy fz
1 0 8.455402 6.377053 6.452050 1.003393 -1.083451 2.502720
2 0 7.730066 7.699371 6.489629 -1.402965 -1.306435 -0.049352
3 0 8.415677 7.935727 5.176439 1.848079 -0.184539 1.380406
4 1 7.917325 8.343656 7.338832 0.193939 0.223511 0.251912
5 1 6.660021 7.410027 6.456312 0.049953 0.623957 -0.132317
6 1 9.220707 8.664529 5.331008 -0.124008 0.243527 -0.768460
7 1 7.817830 7.990957 4.316718 -0.657983 0.299575 -1.504061
8 2 8.592322 5.466128 7.257107 -0.210607 0.581027 -1.169933
9 2 9.100179 6.566337 5.265251 -0.696406 0.587388 -0.504254
Energy
-54.341434430000
PlusStress: xx yy zz yz xz xy
0.000451 0.000728 -0.000179 0.000330 0.000030 -0.000058
Feature EFS_by vasp
Feature from database:p.cfg
Feature mindist 2.70
END_CFG

BEGIN_CFG
Size
9
Supercell
15.750000 0.000000 0.000000
0.000000 14.000000 0.000000
0.000000 0.000000 12.750000
AtomData: id type cartes_x cartes_y cartes_z fx fy fz
1 0 8.416835 6.407241 6.495916 -0.406275 -3.116571 0.581228
2 0 7.660559 7.680969 6.412367 1.229641 1.906300 0.905059
3 0 8.638253 7.982606 5.223237 -1.518076 -0.473150 -1.024189
4 1 7.762977 8.280122 7.363120 -0.080915 -0.220730 -0.828669
5 1 6.618758 7.656915 6.127927 -0.483840 -0.342160 -0.084740
6 1 9.440709 8.726425 5.313366 -0.064642 -0.126181 0.208874
7 1 8.076667 8.088999 4.231581 0.844161 -0.066362 1.017927
8 2 8.438101 5.390156 7.180348 -0.101626 1.401927 -0.430337
9 2 9.150744 6.576815 5.357378 0.581564 1.020687 -0.351374
Energy
-54.407020770000
PlusStress: xx yy zz yz xz xy
0.000768 0.000881 0.001280 -0.000113 0.000230 0.000041
Feature EFS_by vasp
Feature from database:p.cfg
Feature mindist 2.70
END_CFG

BEGIN_CFG
Size
9
Supercell
15.750000 0.000000 0.000000
0.000000 14.000000 0.000000
0.000000 0.000000 12.750000
AtomData: id type cartes_x cartes_y cartes_z fx fy fz
1 0 8.333527 6.367224 6.475562 0.908287 0.846454 0.390325
2 0 7.702154 7.773865 6.414933 -0.533495 -0.911919 -2.450525
3 0 8.724314 7.910708 5.229535 -0.142854 1.942649 1.093689
4 1 7.750935 8.509380 7.193146 0.307037 0.135298 0.873827
5 1 6.648542 7.692908 6.058077 0.354206 0.119992 0.248252
6 1 9.455601 8.725300 5.328585 0.197593 -0.057906 0.295417
7 1 8.344376 7.995256 4.235864 -0.719564 -0.228615 -0.984896
8 2 8.253433 5.333342 7.057247 -0.592275 -0.863351 0.741806
9 2 9.283348 6.637256 5.502875 0.230713 -0.990266 -0.219562
Energy
-54.385192220000
PlusStress: xx yy zz yz xz xy
0.000661 -0.000218 -0.000008 0.000522 -0.000378 -0.000045
Feature EFS_by vasp
Feature from database:p.cfg
Feature mindist 2.70
END_CFG

BEGIN_CFG
Size
9
Supercell
15.750000 0.000000 0.000000
0.000000 14.000000 0.000000
0.000000 0.000000 12.750000
AtomData: id type cartes_x cartes_y cartes_z fx fy fz
1 0 8.340847 6.333766 6.424707 -0.980025 2.592489 -1.738176
2 0 7.678140 7.742368 6.271939 0.669569 -0.536675 1.547563
3 0 8.841935 7.988073 5.358271 0.624852 0.685715 -1.579641
4 1 7.719493 8.146043 7.315617 0.023651 0.346031 -0.718913
5 1 6.663992 7.862969 5.873512 0.078197 -0.346573 -0.021959
6 1 9.578061 8.809275 5.531277 -0.206975 -0.674839 0.379587
7 1 8.505913 8.111350 4.291785 0.373515 -0.445125 0.568394
8 2 8.025337 5.366817 6.999977 -0.182216 -2.844749 1.493164
9 2 9.418928 6.594042 5.596742 -0.399597 1.208537 0.069384
Energy
-54.315134150000
PlusStress: xx yy zz yz xz xy
0.000936 0.000235 0.000596 0.000486 0.000454 -0.000867
Feature EFS_by vasp
Feature from database:p.cfg
Feature mindist 2.70
END_CFG

BEGIN_CFG
Size
9
Supercell
15.750000 0.000000 0.000000
0.000000 14.000000 0.000000
0.000000 0.000000 12.750000
AtomData: id type cartes_x cartes_y cartes_z fx fy fz
1 0 8.223295 6.341758 6.359645 0.204112 -0.616242 0.989789
2 0 7.721958 7.769188 6.131475 -1.475136 -0.752714 1.669356
3 0 9.033393 8.018627 5.496699 -0.169855 -0.421642 -1.220123
4 1 7.539002 8.295416 7.080421 -0.169893 -0.005144 -0.091978
5 1 6.803815 7.716072 5.551327 -0.178026 0.454952 -0.425650
6 1 9.660683 8.680879 6.077635 0.613358 0.186774 -0.019392
7 1 8.933021 8.273954 4.430156 0.583394 0.022169 0.092921
8 2 7.922726 5.328280 6.962053 0.069218 0.910251 -0.792062
9 2 9.403848 6.581216 5.677077 0.528752 0.204122 -0.201173
Energy
-54.457560720000
PlusStress: xx yy zz yz xz xy
-0.000382 0.001151 0.000479 -0.000120 0.000431 0.000085
Feature EFS_by vasp
Feature from database:p.cfg
Feature mindist 2.70
END_CFG

BEGIN_CFG
Size
9
Supercell
15.750000 0.000000 0.000000
0.000000 14.000000 0.000000
0.000000 0.000000 12.750000
AtomData: id type cartes_x cartes_y cartes_z fx fy fz
1 0 8.189689 6.348240 6.369278 -0.488845 -0.675812 0.170084
2 0 7.695239 7.790809 6.098077 0.840995 -0.140065 -1.480197
3 0 9.203730 7.993475 5.511450 -1.916472 0.095406 2.437728
4 1 7.438181 8.381561 6.969573 -0.094934 0.188815 0.367133
5 1 6.877312 7.855369 5.335816 0.453570 -0.084425 0.475804
6 1 9.821325 8.589134 6.222617 -0.162684 0.187350 -0.832229
7 1 9.321721 8.172544 4.456640 0.105628 0.350358 -0.531307
8 2 7.759163 5.288416 6.824020 0.951514 2.051870 -0.823807
9 2 9.452202 6.616847 5.831557 0.324018 -1.982506 0.214182
Energy
-54.356146670000
PlusStress: xx yy zz yz xz xy
0.001730 0.001097 0.001120 -0.000471 -0.000327 0.000859
Feature EFS_by vasp
Feature from database:p.cfg
Feature mindist 2.70
END_CFG

BEGIN_CFG
Size
9
Supercell
15.750000 0.000000 0.000000
0.000000 14.000000 0.000000
0.000000 0.000000 12.750000
AtomData: id type cartes_x cartes_y cartes_z fx fy fz
1 0 8.168681 6.355783 6.397182 0.965573 1.398245 -1.472488
2 0 7.779324 7.788410 6.004323 0.240836 0.548668 1.031342
3 0 9.235138 7.997558 5.601269 -0.550118 -2.131038 -1.164811
4 1 7.457748 8.490551 6.815380 0.025400 -0.661628 -0.293505
5 1 7.037118 7.810753 5.212291 -0.250052 -0.027796 -0.299127
6 1 9.759256 8.761456 6.145698 0.675921 0.221790 0.321477
7 1 9.381165 8.008785 4.488107 0.179388 0.262203 0.842401
8 2 7.562990 5.353559 6.611970 0.134008 -0.714308 0.604398
9 2 9.566400 6.540218 6.045813 -1.417241 1.082378 0.438838
Energy
-54.348792980000
PlusStress: xx yy zz yz xz xy
0.001046 0.001434 0.000996 -0.000025 -0.000217 -0.000273
Feature EFS_by vasp
Feature from database:p.cfg
Feature mindist 2.70
END_CFG

BEGIN_CFG
Size
9
Supercell
15.750000 0.000000 0.000000
0.000000 14.000000 0.000000
0.000000 0.000000 12.750000
AtomData: id type cartes_x cartes_y cartes_z fx fy fz
1 0 8.124877 6.320376 6.243780 -0.627871 2.720675 0.105317
2 0 7.835809 7.885121 5.857192 -0.042042 -1.765878 -0.682711
3 0 9.370095 7.944707 5.777513 0.053153 0.359760 1.238725
4 1 7.291456 8.467981 6.591990 -0.014912 0.166692 0.360152
5 1 7.285243 7.903352 4.889104 0.372154 0.269009 0.321278
6 1 9.960740 8.508795 6.549304 -0.783967 -0.084471 -0.349560
7 1 9.831818 8.162186 4.820328 -0.001372 -0.234772 -0.566801
8 2 7.501972 5.358021 6.583307 0.121557 -0.417824 -0.117354
9 2 9.470714 6.531238 6.155949 0.922417 -1.025140 -0.312723
Energy
-54.399161330000
PlusStress: xx yy zz yz xz xy
0.000790 0.001263 0.000642 -0.000140 0.000298 0.000318
Feature EFS_by vasp
Feature from database:p.cfg
Feature mindist 2.70
END_CFG

BEGIN_CFG
Size
9
Supercell
15.750000 0.000000 0.000000
0.000000 14.000000 0.000000
0.000000 0.000000 12.750000
AtomData: id type cartes_x cartes_y cartes_z fx fy fz
1 0 8.048931 6.389839 6.164757 1.344813 -1.025058 0.326673
2 0 7.940400 7.815486 5.731608 -1.151739 0.619192 0.284031
3 0 9.447946 7.897519 5.958176 -0.282794 1.004876 -0.888578
4 1 7.200133 8.272136 6.407037 0.257910 0.657572 -0.169716
5 1 7.673632 7.973896 4.685407 -0.355153 -0.031618 -0.124770
6 1 9.876269 8.542141 6.730803 -0.254564 -0.115942 0.499496
7 1 9.977742 8.153760 5.026023 0.146305 -0.293661 -0.030057
8 2 7.400773 5.427617 6.497530 0.102426 0.656214 -0.461759
9 2 9.469561 6.503468 6.259792 0.194322 -1.478156 0.575385
Energy
-54.381189400000
PlusStress: xx yy zz yz xz xy
0.000732 -0.000137 0.000516 -0.000005 -0.000301 0.000836
Feature EFS_by vasp
Feature from database:p.cfg
Feature mindist 2.70
END_CFG

BEGIN_CFG
Size
9
Supercell
15.750000 0.000000 0.000000
0.000000 14.000000 0.000000
0.000000 0.000000 12.750000
AtomData: id type cartes_x cartes_y cartes_z fx fy fz
1 0 8.135750 6.390029 6.170271 -3.074829 -0.719410 0.674740
2 0 7.975375 7.842054 5.686261 1.190369 -0.340398 -0.405996
3 0 9.471854 7.895361 5.951191 1.074011 -0.666635 0.549567
4 1 7.345984 8.572054 6.226434 0.087266 -0.551971 0.033299
5 1 7.774467 7.864340 4.614088 -0.366047 0.091792 -0.177062
6 1 9.818474 8.594001 6.727833 0.035829 -0.275761 -0.004561
7 1 10.173742 7.849735 5.094884 -0.367717 0.189340 0.229172
8 2 7.287710 5.507082 6.277725 1.660118 0.643486 -0.069462
9 2 9.449191 6.409398 6.526368 -0.249725 1.611967 -0.828071
Energy
-54.317203100000
PlusStress: xx yy zz yz xz xy
0.000978 0.001872 0.000738 -0.000149 -0.000103 -0.000429
Feature EFS_by vasp
Feature from database:p.cfg
Feature mindist 2.70
END_CFG

BEGIN_CFG
Size
9
Supercell
15.750000 0.000000 0.000000
0.000000 14.000000 0.000000
0.000000 0.000000 12.750000
AtomData: id type cartes_x cartes_y cartes_z fx fy fz
1 0 8.033613 6.464451 6.184199 -0.837744 -1.879418 -1.592179
2 0 8.134283 7.872328 5.527302 0.296101 -0.123147 1.069094
3 0 9.556086 7.804162 6.109511 -0.006503 -0.356203 0.823877
4 1 7.521254 8.620615 6.020647 -0.443575 0.201768 0.085590
5 1 8.044174 7.984583 4.418873 0.026476 -0.442446 0.707980
6 1 9.880250 8.400544 7.002603 -0.287823 0.042901 -1.006498
7 1 10.234359 7.747886 5.280886 1.159284 0.032901 -0.149235
8 2 7.272895 5.509641 6.134826 0.353557 1.279893 0.398833
9 2 9.322697 6.404613 6.655557 -0.267858 1.216675 -0.332017
Energy
-54.321903870000
PlusStress: xx yy zz yz xz xy
0.000005 0.001357 0.001692 -0.000486 0.000553 -0.000090
Feature EFS_by vasp
Feature from database:p.cfg
Feature mindist 2.70
END_CFG

BEGIN_CFG
Size
9
Supercell
15.750000 0.000000 0.000000
0.000000 14.000000 0.000000
0.000000 0.000000 12.750000
AtomData: id type cartes_x cartes_y cartes_z fx fy fz
1 0 8.040016 6.467758 6.036528 1.334491 0.445172 1.050888
2 0 8.268597 7.814016 5.452060 0.058882 0.534225 0.486957
3 0 9.579694 7.730583 6.279228 0.444215 0.389139 -1.166875
4 1 7.535891 8.578940 5.782574 0.249618 -0.258163 -0.206756
5 1 8.278024 7.726123 4.374224 0.343589 0.356910 -0.580651
6 1 9.542544 8.392716 7.125352 0.401840 0.642491 0.508693
7 1 10.553556 7.725748 5.735299 -0.492187 0.182019 0.301862
8 2 7.217545 5.635697 6.079278 -2.519773 -2.098587 -0.344578
9 2 9.240317 6.395716 6.732636 0.176138 -0.209235 -0.042739
Energy
-54.424970440000
PlusStress: xx yy zz yz xz xy
-0.000225 -0.000941 0.000350 0.000128 -0.000026 -0.001417
Feature EFS_by vasp
Feature from database:p.cfg
Feature mindist 2.70
END_CFG

BEGIN_CFG
Size
9
Supercell
15.750000 0.000000 0.000000
0.000000 14.000000 0.000000
0.000000 0.000000 12.750000
AtomData: id type cartes_x cartes_y cartes_z fx fy fz
1 0 8.077519 6.429810 6.046359 -0.605513 0.826076 -1.913163
2 0 8.431783 7.805249 5.364440 0.352733 -0.949659 0.444897
3 0 9.597608 7.755797 6.351653 0.228992 -0.410698 1.107831
4 1 7.560664 8.435150 5.553971 0.244934 0.616447 0.047978
5 1 8.761540 7.855614 4.300719 -0.468076 -0.339645 0.517877
6 1 9.670462 8.474040 7.212965 -0.295285 -0.585721 -0.582564
7 1 10.590426 7.576891 5.925288 -0.016998 0.150688 -0.129656
8 2 7.130433 5.707101 5.945769 -0.595819 -0.838078 0.123718
9 2 9.121259 6.345567 6.871704 1.145636 1.526425 0.367648
Energy
-54.317323380000
PlusStress: xx yy zz yz xz xy
0.000134 0.001241 0.001104 -0.000529 -0.000458 -0.000155
Feature EFS_by vasp
Feature from database:p.cfg
Feature mindist 2.70
END_CFG

BEGIN_CFG
Size
9
Supercell
15.750000 0.000000 0.000000
0.000000 14.000000 0.000000
0.000000 0.000000 12.750000
AtomData: id type cartes_x cartes_y cartes_z fx fy fz
1 0 8.001336 6.544830 5.970458 -1.625134 -2.277341 1.175198
2 0 8.588513 7.816416 5.366410 1.262957 -1.108932 -0.346660
3 0 9.655167 7.597135 6.431318 -0.019484 0.741739 1.178589
4 1 8.124891 8.794676 5.241204 -0.566506 -0.115716 0.396678
5 1 9.052451 7.548211 4.408789 -0.330660 0.005914 -0.396325
6 1 9.732649 8.385620 7.179049 -0.101346 0.157528 0.351370
7 1 10.659923 7.392217 6.074457 0.270650 -0.532128 -0.158629
8 2 7.139219 5.690189 5.805070 0.785086 1.695099 -0.425156
9 2 8.947122 6.400668 7.013688 0.310812 1.413510 -1.767626
Energy
-54.281597640000
PlusStress: xx yy zz yz xz xy
0.000437 0.001592 0.000740 -0.000859 -0.000119 0.000186
Feature EFS_by vasp
Feature from database:p.cfg
Feature mindist 2.70
END_CFG

BEGIN_CFG
Size
9
Supercell
15.750000 0.000000 0.000000
0.000000 14.000000 0.000000
0.000000 0.000000 12.750000
AtomData: id type cartes_x cartes_y cartes_z fx fy fz
1 0 8.027762 6.510548 5.954649 -0.466981 0.063451 -0.578041
2 0 8.754978 7.679571 5.314741 -0.040046 0.917176 0.709427
3 0 9.639220 7.558365 6.598255 1.861657 -0.128750 -1.378298
4 1 8.140466 8.595802 5.127544 0.308152 -0.526559 0.339823
5 1 9.278433 7.432240 4.387668 0.055293 -0.109578 -0.108065
6 1 9.799688 8.320848 7.366432 -0.462869 0.326500 -0.141160
7 1 10.645169 7.153231 6.290847 -0.450192 0.399147 0.400124
8 2 7.080626 5.830283 5.655152 0.188083 -0.170418 0.397164
9 2 8.854520 6.456804 7.072132 -0.984051 -0.794813 0.370114
Energy
-54.448784680000
PlusStress: xx yy zz yz xz xy
0.000558 0.000363 0.001078 0.000098 0.000354 -0.000553
Feature EFS_by vasp
Feature from database:p.cfg
Feature mindist 2.70
END_CFG

BEGIN_CFG
Size
9
Supercell
15.750000 0.000000 0.000000
0.000000 14.000000 0.000000
0.000000 0.000000 12.750000
AtomData: id type cartes_x cartes_y cartes_z fx fy fz
1 0 8.027323 6.476789 5.873775 2.882778 2.554106 1.343372
2 0 8.964848 7.577639 5.372091 -0.308947 -0.898544 -2.501798
3 0 9.662024 7.575601 6.693259 -2.117977 -0.315644 0.257353
4 1 8.372445 8.407033 5.030629 -0.105902 0.975400 -0.054615
5 1 9.505170 7.180780 4.481628 0.168128 0.378987 0.402138
6 1 9.478466 8.472827 7.316769 0.027925 -0.413245 -0.026812
7 1 10.678422 7.265413 6.717723 1.033945 -0.439063 0.095986
8 2 7.028271 5.949027 5.561886 -1.962552 -1.563029 -0.626640
9 2 8.721868 6.437986 7.088347 0.375699 -0.288649 1.117490
Energy
-54.327282740000
PlusStress: xx yy zz yz xz xy
0.000083 0.000478 -0.000270 0.000683 -0.000143 0.000264
Feature EFS_by vasp
Feature from database:p.cfg
Feature mindist 2.70
END_CFG

BEGIN_CFG
Size
9
Supercell
15.750000 0.000000 0.000000
0.000000 14.000000 0.000000
0.000000 0.000000 12.750000
AtomData: id type cartes_x cartes_y cartes_z fx fy fz
1 0 7.991110 6.556148 5.805249 1.971710 0.496454 1.734935
2 0 9.147486 7.549034 5.344094 -0.471767 0.132264 0.326024
3 0 9.676351 7.423276 6.791139 -0.616136 0.063149 -0.328621
4 1 8.802018 8.581351 5.076536 0.011988 -0.685991 0.137667
5 1 9.853078 7.228607 4.583087 -0.085780 -0.427794 -0.468871
6 1 9.449734 8.359741 7.308192 0.740224 0.138675 0.448413
7 1 10.707155 6.979404 6.986986 -1.200132 0.456515 -0.227479
8 2 7.018871 5.947617 5.474075 0.012871 0.289147 -0.465734
9 2 8.562000 6.526704 7.149637 -0.380876 -0.484852 -1.162668
Energy
-54.305915180000
PlusStress: xx yy zz yz xz xy
0.002065 0.001073 0.000998 -0.000381 0.000359 0.000026
Feature EFS_by vasp
Feature from database:p.cfg
Feature mindist 2.70
END_CFG

BEGIN_CFG
Size
9
Supercell
15.750000 0.000000 0.000000
0.000000 14.000000 0.000000
0.000000 0.000000 12.750000
AtomData: id type cartes_x cartes_y cartes_z fx fy fz
1 0 7.981512 6.659523 5.866281 -0.366508 -1.867429 -1.558808
2 0 9.224311 7.387913 5.380955 0.581984 0.813061 0.572537
3 0 9.647005 7.341170 6.871856 -0.286298 -0.522249 -0.807987
4 1 9.140560 8.424676 5.049739 -0.463175 0.148515 -0.291860
5 1 9.839173 6.857036 4.628973 -0.247581 -0.101894 0.359046
6 1 9.755239 8.283202 7.413821 -0.075951 0.096091 0.064853
7 1 10.412069 6.627089 7.077964 1.258043 -0.250012 0.259838
8 2 7.103833 6.030055 5.264871 1.264889 1.470464 1.943637