BEGIN_CFG
Size
12
Supercell
15.750000 0.000000 0.000000
0.000000 14.250000 0.000000
0.000000 0.000000 13.500000
AtomData: id type cartes_x cartes_y cartes_z fx fy fz
1 0 8.786917 8.176083 7.021000 2.790842 2.830195 0.818489
2 0 8.872917 6.706083 7.090000 -0.707999 -0.987627 -0.185473
3 0 7.475917 6.264083 6.635000 -0.302832 -1.217538 -0.090740
4 0 6.673917 7.549083 6.349000 -0.548003 -0.918193 -0.113559
5 1 9.658917 6.331083 6.400000 -0.097451 0.224846 0.491545
6 1 9.076917 6.381083 8.133000 0.224676 0.194409 -0.460287
7 1 7.549917 5.644083 5.715000 -0.173989 0.105538 0.447634
8 1 6.979917 5.668083 7.432000 0.130795 0.096401 -0.470540
9 1 6.341917 7.581083 5.290000 0.027995 0.211707 0.347097
10 1 5.791917 7.621083 7.021000 0.236940 0.197248 -0.292740
11 2 9.734917 8.952083 7.309000 -2.517169 -1.414657 -0.773867
12 2 7.555917 8.626083 6.605000 0.908221 0.652710 0.279329
Energy
-71.480655190000
PlusStress: xx yy zz yz xz xy
0.001365 -0.000153 0.001297 -0.000004 0.000023 -0.000104
Feature EFS_by vasp
Feature from database:p.cfg
Feature mindist 2.70
END_CFG

BEGIN_CFG
Size
12
Supercell
15.750000 0.000000 0.000000
0.000000 14.250000 0.000000
0.000000 0.000000 13.500000
AtomData: id type cartes_x cartes_y cartes_z fx fy fz
1 0 8.840655 8.177894 6.973722 -0.139287 -0.281828 -0.322618
2 0 8.914079 6.638957 6.920712 -1.197320 1.247706 -0.976799
3 0 7.472377 6.308776 6.527012 -0.794316 -1.254521 -0.298199
4 0 6.586014 7.576355 6.681093 2.202310 -0.679017 0.157134
5 1 9.626187 6.287913 6.156219 0.096519 0.248394 0.262956
6 1 9.216180 6.311424 7.900841 0.180558 -0.425929 0.581374
7 1 7.375696 5.911484 5.507752 0.344912 0.293442 -0.266704
8 1 7.088683 5.470978 7.106109 -0.279830 -0.177644 0.490972
9 1 5.838233 7.679798 5.894247 -0.148935 0.169716 0.050067
10 1 6.191651 7.592479 7.703765 -0.419871 0.356934 -0.035902
11 2 9.700352 8.938958 7.339169 0.288341 0.370314 -0.045402
12 2 7.591815 8.632494 6.551800 -0.121256 0.146940 0.405903
Energy
-71.463243950000
PlusStress: xx yy zz yz xz xy
0.001208 0.000340 0.000483 0.000070 0.000196 -0.000693
Feature EFS_by vasp
Feature from database:p.cfg
Feature mindist 2.70
END_CFG

BEGIN_CFG
Size
12
Supercell
15.750000 0.000000 0.000000
0.000000 14.250000 0.000000
0.000000 0.000000 13.500000
AtomData: id type cartes_x cartes_y cartes_z fx fy fz
1 0 8.872249 8.185850 6.963868 -3.062290 -2.590090 -0.369970
2 0 8.851611 6.627660 6.891025 -0.242720 0.868634 0.978454
3 0 7.452361 6.320432 6.345506 -0.490333 -0.159030 0.192564
4 0 6.615570 7.560020 6.859513 0.031825 -1.152616 -1.826757
5 1 9.707009 6.360455 6.289543 0.355956 -0.475715 -0.376196
6 1 9.054881 6.286254 7.961082 -0.376463 0.068808 -1.070983
7 1 7.354638 6.386029 5.256267 0.714416 0.243165 -0.313528
8 1 7.052742 5.285904 6.492963 0.105807 0.659934 0.742246
9 1 5.823531 7.766238 6.077487 0.383346 -0.001105 1.061956
10 1 6.213751 7.436999 7.866902 -0.154754 0.115287 0.238525
11 2 9.758497 8.929176 7.148094 2.536464 1.962887 0.362938
12 2 7.557814 8.631559 6.795169 0.193606 0.472448 0.381116
Energy
-71.393685770000
PlusStress: xx yy zz yz xz xy
0.000310 0.000798 0.001148 -0.000060 0.000513 -0.000607
Feature EFS_by vasp
Feature from database:p.cfg
Feature mindist 2.70
END_CFG

BEGIN_CFG
Size
12
Supercell
15.750000 0.000000 0.000000
0.000000 14.250000 0.000000
0.000000 0.000000 13.500000
AtomData: id type cartes_x cartes_y cartes_z fx fy fz
1 0 8.831130 8.153998 6.951364 2.509373 1.651750 0.070022
2 0 8.782703 6.656666 6.863019 2.090394 -0.316100 -0.980103
3 0 7.470033 6.406886 6.232850 -0.842223 0.744878 -1.348080
4 0 6.616473 7.519477 6.828821 0.036287 -0.455301 1.826774
5 1 9.649528 6.222844 6.294976 -0.496136 0.422738 0.481365
6 1 8.870191 6.349215 7.898291 -0.114101 -0.570910 0.587060
7 1 7.494190 6.646193 5.142423 0.428214 -0.288735 0.281716
8 1 7.073507 5.405344 6.287259 -0.359079 -0.516071 0.430097
9 1 5.932344 7.929910 6.120420 -0.633970 0.630123 -0.578606
10 1 6.031632 7.164726 7.726146 0.562952 0.531987 -0.382840
11 2 9.811876 8.922688 6.883173 -1.864422 -1.426888 0.212096
12 2 7.582785 8.593446 7.227780 -1.309682 -0.393318 -0.598008
Energy
-71.392450840000
PlusStress: xx yy zz yz xz xy
0.000343 0.000806 0.000607 0.000160 -0.000267 0.000809
Feature EFS_by vasp
Feature from database:p.cfg
Feature mindist 2.70
END_CFG

BEGIN_CFG
Size
12
Supercell
15.750000 0.000000 0.000000
0.000000 14.250000 0.000000
0.000000 0.000000 13.500000
AtomData: id type cartes_x cartes_y cartes_z fx fy fz
1 0 8.848195 8.173743 6.880632 1.865256 0.200964 1.076451
2 0 8.825202 6.656534 6.656090 -0.555927 0.347406 0.067119
3 0 7.377465 6.466438 6.188003 -0.792259 -0.520941 0.791938
4 0 6.626320 7.523016 7.022710 -0.832680 -0.227029 -0.877259
5 1 9.543314 6.328907 5.923780 0.530241 0.019396 -0.490657
6 1 9.126057 6.156687 7.617087 -0.539221 0.320047 -0.429887
7 1 7.273889 6.726572 5.127842 0.109840 -0.373345 -0.170254
8 1 6.925513 5.470413 6.449756 0.432181 0.535055 -0.650062
9 1 5.645858 7.939328 6.617058 1.278877 -0.114038 -0.154503
10 1 6.300909 7.031043 7.916309 0.031538 -0.140681 1.384782
11 2 9.851681 8.900434 6.908125 -2.135723 -0.799775 -0.152904
12 2 7.575103 8.557696 7.287985 0.615943 0.776113 -0.399145
Energy
-71.405905850000
PlusStress: xx yy zz yz xz xy
0.002171 0.001054 0.000262 -0.000356 0.000281 -0.000012
Feature EFS_by vasp
Feature from database:p.cfg
Feature mindist 2.70
END_CFG

BEGIN_CFG
Size
12
Supercell
15.750000 0.000000 0.000000
0.000000 14.250000 0.000000
0.000000 0.000000 13.500000
AtomData: id type cartes_x cartes_y cartes_z fx fy fz
1 0 8.905719 8.125807 6.902808 -3.702671 -1.573175 -1.251641
2 0 8.814929 6.748618 6.291627 -1.003426 -0.994331 -0.238097
3 0 7.259244 6.440733 6.254009 0.934726 2.156383 0.913694
4 0 6.685140 7.493245 7.296353 2.419899 -1.446270 0.387314
5 1 9.339837 6.662302 5.307763 -0.438160 0.470000 0.406552
6 1 9.351486 6.012830 6.902296 -0.003087 -0.021569 0.362808
7 1 6.831909 6.810389 5.319436 0.008192 -0.644663 -0.461602
8 1 7.018351 5.435624 6.539567 -0.319183 -0.780351 -0.202635
9 1 5.683840 7.748596 7.077484 -1.182344 0.854437 -0.486078
10 1 6.679969 7.080766 8.362460 0.356110 0.585345 -0.904393
11 2 9.810149 8.835115 7.066771 4.054320 2.403461 0.663470
12 2 7.620142 8.625422 7.140247 -1.112923 -0.996588 0.820170
Energy
-71.245085610000
PlusStress: xx yy zz yz xz xy
0.000043 0.000266 0.001122 -0.000099 -0.000810 -0.000752
Feature EFS_by vasp
Feature from database:p.cfg
Feature mindist 2.70
END_CFG

BEGIN_CFG
Size
12
Supercell
15.750000 0.000000 0.000000
0.000000 14.250000 0.000000
0.000000 0.000000 13.500000
AtomData: id type cartes_x cartes_y cartes_z fx fy fz
1 0 8.858097 8.140515 6.871419 1.188862 0.361279 -0.479273
2 0 8.696980 6.874518 6.092485 0.243062 -1.081267 -0.518043
3 0 7.265958 6.456985 6.284815 -1.339063 -0.002327 0.731366
4 0 6.732018 7.486617 7.373058 -1.215295 -0.476337 -2.657678
5 1 8.963122 7.048758 5.035937 0.005126 0.181066 0.143985
6 1 9.366383 6.061287 6.416355 0.251307 0.369007 0.189039
7 1 6.635057 6.591326 5.380871 0.335269 -0.364161 0.247818
8 1 7.165975 5.432508 6.706961 -0.069908 0.316598 -0.520246
9 1 5.729367 7.867235 6.985859 0.891928 -0.295865 1.013419
10 1 6.699655 7.030426 8.346555 -0.212463 -0.039852 0.817080
11 2 9.885378 8.774088 7.011138 -0.256649 0.154834 0.171598
12 2 7.650588 8.556106 7.328009 0.173519 0.889773 0.873653
Energy
-71.464444510000
PlusStress: xx yy zz yz xz xy
0.000102 0.000315 0.000790 -0.000291 0.000273 -0.000636
Feature EFS_by vasp
Feature from database:p.cfg
Feature mindist 2.70
END_CFG

BEGIN_CFG
Size
12
Supercell
15.750000 0.000000 0.000000
0.000000 14.250000 0.000000
0.000000 0.000000 13.500000
AtomData: id type cartes_x cartes_y cartes_z fx fy fz
1 0 8.831397 8.153137 6.818391 3.083613 0.830679 0.189102
2 0 8.662693 6.922360 6.033506 -0.762010 -1.275139 -0.656768
3 0 7.196089 6.548588 6.262402 -0.508765 -0.969433 -0.679476
4 0 6.678546 7.506926 7.333360 1.969567 -1.376353 0.737197
5 1 8.903244 7.083197 4.974667 0.056962 0.042658 0.033513
6 1 9.358118 6.149472 6.404278 0.024513 0.210854 0.039454
7 1 6.633351 6.637685 5.334623 -0.210971 0.300684 -0.340608
8 1 6.978742 5.503990 6.563895 0.514317 0.190660 0.037215
9 1 5.889834 8.116016 6.980894 -1.157001 0.840467 -0.009277
10 1 6.485556 6.888357 8.227877 -0.517186 0.680836 0.054090
11 2 9.863165 8.829876 6.825412 -1.033461 -0.110208 0.076187
12 2 7.830593 8.349220 7.668586 -1.462898 0.642304 0.522825
Energy
-71.423620300000
PlusStress: xx yy zz yz xz xy
0.000164 0.000095 -0.000040 -0.000602 0.000086 0.000261
Feature EFS_by vasp
Feature from database:p.cfg
Feature mindist 2.70
END_CFG

BEGIN_CFG
Size
12
Supercell
15.750000 0.000000 0.000000
0.000000 14.250000 0.000000
0.000000 0.000000 13.500000
AtomData: id type cartes_x cartes_y cartes_z fx fy fz
1 0 8.894747 8.145589 6.743641 -1.999193 -1.423739 1.497554
2 0 8.606053 6.923198 5.928903 -0.754418 0.110387 -0.515957
3 0 7.100316 6.646683 6.181913 -0.191157 0.423624 -0.424578
4 0 6.738200 7.506379 7.525478 -0.663008 -0.617434 -2.932074
5 1 8.877123 7.087938 4.856934 -0.120820 -0.217100 0.640599
6 1 9.266814 6.164498 6.373698 0.006311 -0.206188 -0.196439
7 1 6.521564 6.947139 5.275358 0.154398 0.513116 0.574541
8 1 6.844416 5.587776 6.192488 0.182724 -0.404478 0.686168
9 1 5.899866 8.233655 7.214594 0.956427 -0.758163 0.792010
10 1 6.431535 6.846155 8.345755 0.076389 0.180064 0.161238
11 2 9.806872 8.892519 6.756935 1.794739 1.525828 -0.304446
12 2 7.934434 8.187858 7.802116 0.573600 0.888531 0.026747
Energy
-71.263397480000
PlusStress: xx yy zz yz xz xy
0.000814 0.000162 0.001798 0.000003 -0.000423 -0.000861
Feature EFS_by vasp
Feature from database:p.cfg
Feature mindist 2.70
END_CFG

BEGIN_CFG
Size
12
Supercell
15.750000 0.000000 0.000000
0.000000 14.250000 0.000000
0.000000 0.000000 13.500000
AtomData: id type cartes_x cartes_y cartes_z fx fy fz
1 0 8.876394 8.124612 6.791832 0.470011 -0.117777 -0.952600
2 0 8.491830 6.995289 5.794437 -0.636970 0.129702 2.282355
3 0 7.005807 6.820664 6.195609 -0.146847 -1.169072 -1.084356
4 0 6.917677 7.239214 7.652028 0.475209 -0.265802 -0.312871
5 1 8.674301 7.307468 4.779244 0.167850 0.063601 -0.499958
6 1 9.103822 6.105090 6.080246 -0.233799 0.352111 -0.369117
7 1 6.371296 7.476577 5.575686 0.093696 0.071463 0.102483
8 1 6.642570 5.788404 6.001453 0.054290 0.276539 0.216287
9 1 5.941248 7.612817 7.905932 -0.579544 0.683524 0.122059
10 1 7.097655 6.433913 8.399647 0.529606 0.212469 -0.325887
11 2 9.871974 8.813113 6.755184 0.092836 0.138577 0.139834
12 2 7.905722 8.307775 7.733141 -0.280969 -0.362690 0.688292
Energy
-71.599462200000
PlusStress: xx yy zz yz xz xy
0.000506 0.000823 0.000924 -0.000120 -0.000211 -0.000069
Feature EFS_by vasp
Feature from database:p.cfg
Feature mindist 2.70
END_CFG

BEGIN_CFG
Size
12
Supercell
15.750000 0.000000 0.000000
0.000000 14.250000 0.000000
0.000000 0.000000 13.500000
AtomData: id type cartes_x cartes_y cartes_z fx fy fz
1 0 8.845563 8.119872 6.751560 1.794852 0.992555 -0.283666
2 0 8.335009 7.134341 5.695278 -0.356816 1.981616 0.421120
3 0 6.946928 6.886502 6.237245 -0.315240 -0.081971 -0.964718
4 0 7.077175 7.159867 7.715849 -1.633858 -1.348094 0.284746
5 1 8.311651 7.699378 4.728554 0.355563 -0.681209 0.423607
6 1 8.984651 6.277907 5.691094 0.463101 -0.614118 -0.278796
7 1 6.298973 7.667687 5.808104 -0.249038 -0.218171 0.004408
8 1 6.618566 5.908454 5.900787 -0.599929 -0.395256 0.350954
9 1 6.100505 7.306459 8.209268 0.121610 0.759301 -0.153830
10 1 7.463109 6.308655 8.278547 0.664285 -0.390144 0.075591
11 2 9.901018 8.740706 6.729574 -0.935268 -0.371399 0.094642
12 2 7.945352 8.261731 7.792120 0.698417 0.368041 0.034076
Energy
-71.424430130000
PlusStress: xx yy zz yz xz xy
-0.000280 0.000070 0.000891 -0.000023 -0.000106 -0.000377
Feature EFS_by vasp
Feature from database:p.cfg
Feature mindist 2.70
END_CFG

BEGIN_CFG
Size
12
Supercell
15.750000 0.000000 0.000000
0.000000 14.250000 0.000000
0.000000 0.000000 13.500000
AtomData: id type cartes_x cartes_y cartes_z fx fy fz
1 0 8.849604 8.130254 6.702434 -0.432668 -0.907639 1.225570
2 0 8.256372 7.291097 5.611759 -0.359696 -0.604447 1.418448
3 0 6.876818 6.866699 6.244550 0.922450 0.755593 -0.600889
4 0 6.991117 7.252671 7.762024 -0.506040 -0.709186 -0.275150
5 1 8.180017 7.966293 4.774039 -0.145082 -0.039062 -0.798615
6 1 9.034414 6.498858 5.422100 -0.837449 0.348912 -0.054452
7 1 6.151301 7.559618 5.774627 -0.206182 -0.677775 0.077855
8 1 6.659710 5.804378 6.060078 -0.296484 0.244614 0.082842
9 1 6.106018 7.882280 8.047810 0.753266 -0.212240 0.050707
10 1 7.009923 6.346280 8.406112 0.026642 0.367372 -0.107928
11 2 9.823059 8.803383 6.654234 2.113354 1.600622 -0.521893
12 2 8.236298 7.963212 7.935112 -1.026053 -0.163381 -0.483284
Energy
-71.413732690000
PlusStress: xx yy zz yz xz xy
0.000252 0.000681 0.000951 0.000115 -0.000259 -0.001084
Feature EFS_by vasp
Feature from database:p.cfg
Feature mindist 2.70
END_CFG

BEGIN_CFG
Size
12
Supercell
15.750000 0.000000 0.000000
0.000000 14.250000 0.000000
0.000000 0.000000 13.500000
AtomData: id type cartes_x cartes_y cartes_z fx fy fz
1 0 8.850509 8.142832 6.701601 0.330854 -0.408229 -0.476513
2 0 8.059221 7.433046 5.572211 1.222696 0.962450 0.428920
3 0 6.848230 6.955271 6.294461 -0.534269 -1.200006 0.019883
4 0 7.062830 7.228307 7.810455 -0.472083 -0.195319 -1.080081
5 1 7.936548 8.057391 4.656316 -0.082924 -0.154549 0.664042
6 1 8.718534 6.610029 5.295318 0.234478 -0.278790 -0.218181
7 1 6.005188 7.530369 5.975807 -1.018213 0.184716 -0.341238
8 1 6.687385 5.889253 6.079379 -0.325296 0.066960 0.105197
9 1 6.399382 8.063988 8.027023 -0.514591 -0.104166 0.851791
10 1 6.948151 6.337761 8.452517 -0.089055 0.358916 -0.013204
11 2 9.834388 8.833900 6.623784 0.340423 0.395495 -0.187892
12 2 8.367802 7.741550 7.921951 0.916075 0.375490 0.255026
Energy
-71.403312530000
PlusStress: xx yy zz yz xz xy
-0.001362 0.000471 0.001057 -0.000179 0.000248 -0.000477
Feature EFS_by vasp
Feature from database:p.cfg
Feature mindist 2.70
END_CFG

BEGIN_CFG
Size
12
Supercell
15.750000 0.000000 0.000000
0.000000 14.250000 0.000000
0.000000 0.000000 13.500000
AtomData: id type cartes_x cartes_y cartes_z fx fy fz
1 0 8.841501 8.144599 6.707113 1.579393 0.618851 -1.858284
2 0 7.920767 7.708058 5.572959 -0.193673 -1.140770 0.380018
3 0 6.793945 6.972457 6.349123 -1.897434 0.247082 -0.889678
4 0 7.135308 7.058512 7.867079 0.211428 1.192511 -1.047439
5 1 7.618147 8.520020 4.896827 -0.174918 0.253592 0.471859
6 1 8.488395 7.034732 4.877588 -0.178161 0.208575 0.650811
7 1 5.749548 7.353589 6.048637 1.257755 -0.136976 0.699152
8 1 6.714640 5.904198 6.110706 0.274835 -0.045196 -0.273784
9 1 6.463383 7.660798 8.513243 -0.103761 -0.617904 -0.268435
10 1 7.337231 6.050902 8.210155 -0.075350 -0.249111 0.683294
11 2 9.928355 8.688487 6.538957 -0.581977 -0.069059 0.410968
12 2 8.391117 7.791535 7.907864 -0.106986 -0.256043 1.060989
Energy
-71.420391100000
PlusStress: xx yy zz yz xz xy
0.000837 0.000703 0.001319 -0.000005 -0.000110 -0.000230
Feature EFS_by vasp
Feature from database:p.cfg
Feature mindist 2.70
END_CFG

BEGIN_CFG
Size
12
Supercell
15.750000 0.000000 0.000000
0.000000 14.250000 0.000000
0.000000 0.000000 13.500000
AtomData: id type cartes_x cartes_y cartes_z fx fy fz
1 0 8.845100 8.118805 6.621134 0.295621 0.186675 1.988717
2 0 7.739742 7.963236 5.680295 -0.964262 -0.528886 -1.202485
3 0 6.788386 6.975348 6.344262 1.935092 -0.733354 0.835447
4 0 7.258348 6.990848 7.886257 -1.094857 -1.458510 -1.014966
5 1 7.338987 8.956769 5.464963 -0.373675 0.368947 0.363830
6 1 8.073013 7.659646 4.670841 0.227050 -0.231609 0.332057
7 1 5.765935 7.109227 6.144933 -1.671848 0.622218 0.056761
8 1 7.003865 5.963902 5.954185 0.076380 0.118008 0.050705
9 1 6.485309 7.360404 8.580925 0.175641 0.178013 -0.089099
10 1 7.469964 5.901250 8.141513 0.041197 1.102878 0.124397
11 2 9.945277 8.551246 6.452746 1.159956 0.446959 -0.371141
12 2 8.433836 7.778519 7.948533 0.214233 -0.066009 -1.072381
Energy
-71.356957530000
PlusStress: xx yy zz yz xz xy
-0.001023 0.000741 0.001626 -0.000103 -0.000035 -0.000221
Feature EFS_by vasp
Feature from database:p.cfg
Feature mindist 2.70
END_CFG

BEGIN_CFG
Size
12
Supercell
15.750000 0.000000 0.000000
0.000000 14.250000 0.000000
0.000000 0.000000 13.500000
AtomData: id type cartes_x cartes_y cartes_z fx fy fz
1 0 8.873188 8.073163 6.604376 -0.829707 1.012792 1.121939
2 0 7.594039 8.136607 5.799301 -0.697396 0.191960 0.156884
3 0 6.846614 6.971953 6.407112 -2.184578 -0.908107 -0.090406
4 0 7.203774 7.076742 7.859411 -0.107278 0.406129 0.106665
5 1 7.098603 9.130825 5.923069 0.278757 -0.368535 0.353090
6 1 7.756138 8.058922 4.741678 0.352084 -0.218492 -0.790357
7 1 5.700568 6.883865 6.395144 1.274972 0.440477 -0.682855
8 1 7.257901 6.053308 5.953684 -0.136116 -0.098516 0.181067
9 1 6.517164 7.788839 8.366080 0.566346 0.548921 -0.133895
10 1 7.059008 6.193274 8.455957 0.425917 -0.985770 0.165065
11 2 9.924966 8.612033 6.399080 0.939431 -0.070876 -0.352270
12 2 8.586428 7.487552 7.843524 0.131936 0.061011 -0.035251
Energy
-71.403926590000
PlusStress: xx yy zz yz xz xy
0.000707 0.000158 0.000205 -0.000102 -0.000484 -0.000372
Feature EFS_by vasp
Feature from database:p.cfg
Feature mindist 2.70
END_CFG

BEGIN_CFG
Size
12
Supercell
15.750000 0.000000 0.000000
0.000000 14.250000 0.000000
0.000000 0.000000 13.500000
AtomData: id type cartes_x cartes_y cartes_z fx fy fz
1 0 8.875924 8.087365 6.606161 -0.918998 0.525946 -0.683517
2 0 7.542555 8.171723 5.813191 -0.192311 -0.041493 -0.197645
3 0 6.672846 7.106997 6.462430 1.496295 -1.268658 1.092576
4 0 7.306839 7.008237 7.926333 -0.756529 0.037743 -0.434034
5 1 7.065819 9.126598 6.062717 0.277248 0.495393 -0.057013
6 1 7.599850 8.135299 4.679748 0.336876 -0.107426 1.203813
7 1 5.622037 7.322107 6.484375 -0.768825 0.084818 -0.021253
8 1 6.876657 6.136275 5.987728 -0.336001 -0.079147 -0.133009
9 1 6.835285 7.780131 8.580438 0.426526 0.000892 -0.201432
10 1 7.240511 6.050622 8.522133 0.051617 0.522238 -0.989962
11 2 9.904799 8.680137 6.408671 0.657844 0.135432 -0.374253
12 2 8.705590 7.304850 7.700307 -0.265104 -0.309805 0.799161
Energy
-71.478339360000
PlusStress: xx yy zz yz xz xy
0.000572 0.000300 0.002042 -0.000257 0.000402 -0.000452
Feature EFS_by vasp
Feature from database:p.cfg
Feature mindist 2.70
END_CFG

BEGIN_CFG
Size
12
Supercell
15.750000 0.000000 0.000000
0.000000 14.250000 0.000000
0.000000 0.000000 13.500000
AtomData: id type cartes_x cartes_y cartes_z fx fy fz
1 0 8.824806 8.141200 6.592787 1.421039 -0.513885 1.034597
2 0 7.539471 8.234958 5.841278 -1.468693 -0.234238 1.847428
3 0 6.545373 7.288011 6.621059 1.268127 0.542768 0.303925
4 0 7.427701 6.765655 7.821497 -0.458060 0.178943 -0.765134
5 1 7.145016 9.273737 5.948266 0.431441 -0.391899 -0.430746
6 1 7.717325 7.983152 4.823990 0.087227 -0.118346 -1.166538
7 1 5.766115 7.969079 7.010056 -0.320139 -0.824915 -0.254599
8 1 6.217172 6.361952 6.098904 -0.336656 0.935375 -0.135792
9 1 6.951972 7.035996 8.767519 0.238318 -0.178095 0.335640
10 1 7.517833 5.694711 7.664917 0.093430 -0.494387 0.570034
11 2 9.889670 8.641469 6.321166 0.175935 0.421278 -0.356603
12 2 8.761666 7.316379 7.736602 -1.124111 0.676536 -0.980925
Energy
-71.363254870000
PlusStress: xx yy zz yz xz xy
0.000499 0.001188 0.000586 0.000088 0.000215 -0.000403
Feature EFS_by vasp
Feature from database:p.cfg
Feature mindist 2.70
END_CFG

BEGIN_CFG
Size
12
Supercell
15.750000 0.000000 0.000000
0.000000 14.250000 0.000000
0.000000 0.000000 13.500000
AtomData: id type cartes_x cartes_y cartes_z fx fy fz
1 0 8.825358 8.137435 6.607078 -0.048010 -0.253256 -0.454525
2 0 7.457534 8.243043 5.919069 1.372511 -0.884582 -1.031169
3 0 6.579969 7.502868 6.844438 -0.958050 0.423716 1.683693
4 0 7.520288 6.579930 7.624127 -0.706415 0.619481 0.068154
5 1 7.314126 9.307437 5.710146 -0.460817 -0.108362 -0.226514
6 1 7.469451 7.593520 4.985431 0.465495 1.155394 0.369774
7 1 6.060912 8.176426 7.550133 -0.116684 -0.161127 -0.128467
8 1 5.893030 6.868484 6.341158 -1.250548 -0.375746 -0.535146
9 1 7.158670 6.449131 8.654250 0.123485 -0.550480 -0.165812
10 1 7.631056 5.658563 7.026249 0.331907 -0.229866 0.508371
11 2 9.865951 8.638490 6.272506 0.582899 0.534391 -0.068679
12 2 8.737767 7.310813 7.699506 0.668741 -0.163557 -0.010008
Energy
-71.410159800000
PlusStress: xx yy zz yz xz xy
-0.001089 0.000533 0.000435 0.000714 0.000393 -0.000515
Feature EFS_by vasp
Feature from database:p.cfg
Feature mindist 2.70
END_CFG

BEGIN_CFG
Size
12
Supercell
15.750000 0.000000 0.000000
0.000000 14.250000 0.000000
0.000000 0.000000 13.500000
AtomData: id type cartes_x cartes_y cartes_z fx fy fz
1 0 8.836752 8.099381 6.549543 -1.304256 0.164856 -0.288465
2 0 7.433160 8.236055 5.929488 0.710646 -0.536459 1.063716
3 0 6.581072 7.663407 7.071612 -2.262161 -0.356469 -0.038933
4 0 7.508172 6.535481 7.594738 -0.540551 0.097774 -0.400512
5 1 7.290769 9.253136 5.565863 -0.285121 0.099103 0.052429
6 1 7.414922 7.517527 5.105568 -0.136786 0.002399 -0.451802
7 1 6.319308 8.372308 7.888977 0.530286 0.046468 -0.346012
8 1 5.524751 7.326439 6.709919 1.657841 0.072067 0.451035
9 1 7.437453 6.196130 8.638055 -0.415813 0.264957 -0.032146
10 1 7.397521 5.639640 6.942513 0.349808 0.193356 0.085522
11 2 9.811513 8.756010 6.336090 1.360853 0.769575 -0.416840
12 2 8.819124 7.124231 7.486345 0.357154 -0.811954 0.328762
Energy
-71.506817890000
PlusStress: xx yy zz yz xz xy
0.000616 0.000521 0.000852 0.000055 0.000496 -0.000402
Feature EFS_by vasp
Feature from database:p.cfg
Feature mindist 2.70
END_CFG

BEGIN_CFG
Size
12
Supercell
15.750000 0.000000 0.000000
0.000000 14.250000 0.000000
0.000000 0.000000 13.500000
AtomData: id type cartes_x cartes_y cartes_z fx fy fz
1 0 8.802156 8.117669 6.492131 0.642128 -0.035617 0.840592
2 0 7.368799 8.355352 6.092223 0.254534 1.980914 0.155043
3 0 6.543320 7.643061 7.165887 2.424804 0.454397 0.142074
4 0 7.568515 6.592875 7.666813 -1.189814 -1.041897 0.018086
5 1 7.186329 9.461349 6.104281 0.123806 -0.633518 -0.279851
6 1 7.358649 8.024522 5.037316 -0.705503 -0.228880 0.191505
7 1 6.166181 8.280325 7.959223 0.617146 0.744098 0.457444
8 1 5.645464 7.310213 6.800177 -2.198167 -1.763626 -1.288573
9 1 7.540122 6.465434 8.757590 0.366339 0.314568 0.114419
10 1 7.352785 5.593015 7.271661 -0.093954 -0.173760 -0.230909
11 2 9.826869 8.738960 6.348406 0.141572 0.760227 -0.884576
12 2 8.869545 6.958332 7.202630 -0.371232 -0.369606 0.759639
Energy
-71.280364850000
PlusStress: xx yy zz yz xz xy
0.000122 -0.000485 0.000388 0.000165 -0.000556 -0.001030
Feature EFS_by vasp
Feature from database:p.cfg
Feature mindist 2.70
END_CFG

BEGIN_CFG
Size
12
Supercell
15.750000 0.000000 0.000000
0.000000 14.250000 0.000000
0.000000 0.000000 13.500000
AtomData: id type cartes_x cartes_y cartes_z fx fy fz
1 0 8.832083 8.106670 6.544455 0.223632 1.173875 -1.099948
2 0 7.330207 8.538510 6.337367 1.388034 0.080035 -0.058221
3 0 6.562132 7.636572 7.241949 -2.549503 -1.640648 -0.662507
4 0 7.551356 6.499170 7.514320 -0.434073 -1.157431 0.291924
5 1 7.268229 9.548537 6.682620 0.024855 1.110537 0.069441
6 1 7.113494 8.557085 5.252261 -0.079390 -0.311879 0.302588
7 1 6.221565 8.060035 8.222942 0.438797 0.162473 -0.734503
8 1 5.556583 7.203902 6.762118 1.926096 0.753412 0.818624
9 1 7.385907 6.220429 8.567227 0.719592 -0.352682 -0.058179
10 1 7.488082 5.606016 6.863526 -0.611139 0.121374 0.200292
11 2 9.814265 8.693255 6.102878 -0.793162 -0.674430 0.569069
12 2 8.900891 6.946193 7.255949 -0.244308 0.745468 0.365129
Energy
-71.336358440000
PlusStress: xx yy zz yz xz xy
0.001991 -0.000206 0.001213 0.000416 -0.000030 -0.000303
Feature EFS_by vasp
Feature from database:p.cfg
Feature mindist 2.70
END_CFG

BEGIN_CFG
Size
12
Supercell
15.750000 0.000000 0.000000
0.000000 14.250000 0.000000
0.000000 0.000000 13.500000
AtomData: id type cartes_x cartes_y cartes_z fx fy fz
1 0 8.827655 8.124887 6.531839 -1.066175 0.655611 0.651926
2 0 7.331513 8.679966 6.541258 0.686774 -0.384518 -0.132095
3 0 6.561789 7.632498 7.387947 3.592633 0.088433 0.409914
4 0 7.543449 6.384759 7.334983 0.438111 1.863798 -1.119678
5 1 7.252783 9.749214 6.898554 0.354904 -0.985795 -0.076884
6 1 7.052202 8.726640 5.468928 -0.163097 -0.194825 0.237241
7 1 6.548701 8.002499 8.412670 -0.406507 -0.050880 0.330407
8 1 5.631106 7.359363 7.027165 -2.201655 -0.434329 -0.662171
9 1 7.445334 5.652627 8.138569 0.207888 -0.014710 0.011508
10 1 7.512094 5.979777 6.306198 -0.535193 -0.652904 0.450132
11 2 9.760928 8.612086 5.945931 0.397524 0.115827 -0.069754
12 2 8.937243 6.979311 7.300498 -1.291284 -0.003104 -0.021416
Energy
-71.261366210000
PlusStress: xx yy zz yz xz xy
0.001144 0.001768 0.000875 -0.000342 -0.000344 -0.000843
Feature EFS_by vasp
Feature from database:p.cfg
Feature mindist 2.70
END_CFG

BEGIN_CFG
Size
12
Supercell
15.750000 0.000000 0.000000
0.000000 14.250000 0.000000
0.000000 0.000000 13.500000
AtomData: id type cartes_x cartes_y cartes_z fx fy fz
1 0 8.791418 8.167734 6.473247 0.163632 -1.004786 -0.275830
2 0 7.345967 8.669407 6.643684 0.143020 -0.176687 0.192436
3 0 6.666859 7.642667 7.594299 -0.294995 0.487998 -1.717233
4 0 7.536315 6.422782 7.357749 0.559362 -0.381424 1.415795
5 1 7.400066 9.690852 6.998742 -0.039118 0.461289 0.442811
6 1 6.787530 8.758696 5.701583 0.359525 -0.258339 -0.309812
7 1 6.745776 7.989575 8.634867 -0.593895 -0.127607 -0.101145
8 1 5.645643 7.374302 7.158624 0.759875 0.658965 1.285611
9 1 7.699444 5.913101 8.324106 -0.154973 -0.406417 -0.344108
10 1 7.074485 5.762786 6.626073 0.191794 -0.370198 -0.349921
11 2 9.789836 8.685239 6.017251 -0.580465 0.243034 0.179712
12 2 8.856747 6.844542 6.949783 -0.489291 0.871435 -0.428603
Energy
-71.466450830000
PlusStress: xx yy zz yz xz xy
0.001586 0.000251 0.000848 -0.000062 0.000389 0.000230
Feature EFS_by vasp
Feature from database:p.cfg
Feature mindist 2.70
END_CFG

BEGIN_CFG
Size
12
Supercell
15.750000 0.000000 0.000000
0.000000 14.250000 0.000000
0.000000 0.000000 13.500000
AtomData: id type cartes_x cartes_y cartes_z fx fy fz
1 0 8.737094 8.123095 6.393982 0.958917 1.171379 0.689177
2 0 7.386529 8.653784 6.713138 -1.576310 0.530153 -0.948212
3 0 6.798966 7.691800 7.759527 1.947358 0.848101 0.209774
4 0 7.568579 6.424915 7.397307 -0.751955 -1.663045 -0.195830
5 1 7.388922 9.729612 6.916092 0.122400 -0.037941 0.393409
6 1 6.753778 8.566675 5.800654 0.282286 -0.012590 -0.015862
7 1 7.043063 8.106178 8.743667 -0.008344 -0.273220 0.313261
8 1 5.750730 7.556587 7.675779 -1.211154 -0.100138 -0.055667
9 1 7.965514 5.756918 8.183862 -0.156867 0.533649 0.281522
10 1 6.837069 5.742803 6.849717 1.036373 0.603122 -0.246534
11 2 9.764066 8.729765 6.144874 -0.246374 0.014715 -0.601649
12 2 8.745325 6.808678 6.630434 -0.379573 -1.615991 0.172231
Energy
-71.381659550000
PlusStress: xx yy zz yz xz xy
0.000619 -0.000104 0.000274 0.000124 0.000073 0.000318
Feature EFS_by vasp
Feature from database:p.cfg
Feature mindist 2.70
END_CFG

BEGIN_CFG
Size
12
Supercell
15.750000 0.000000 0.000000
0.000000 14.250000 0.000000
0.000000 0.000000 13.500000
AtomData: id type cartes_x cartes_y cartes_z fx fy fz
1 0 8.751608 8.115316 6.399974 -0.945877 0.987641 0.465613
2 0 7.421134 8.700368 6.875689 -0.322801 0.515747 -0.049436
3 0 6.933858 7.675506 7.903902 -0.667755 0.043801 1.033700
4 0 7.484382 6.389568 7.224823 -0.272656 0.542318 1.035257
5 1 7.592018 9.768849 7.139974 -0.143234 -0.610218 0.337664
6 1 6.633928 8.727764 6.097904 0.447638 -0.053197 -0.353453
7 1 7.313833 7.872235 8.944843 0.219243 -0.322213 -0.765203
8 1 5.810667 7.687199 8.047776 0.881310 -0.222352 -0.417290
9 1 7.603321 5.467078 7.789816 0.525747 0.113726 0.818469
10 1 6.800640 6.057273 6.477932 -0.737324 0.041932 -1.407623
11 2 9.689622 8.762261 5.994271 0.418670 -0.527746 -0.359558
12 2 8.743881 6.778216 6.655085 0.604879 -0.503122 -0.334197
Energy
-71.432990610000
PlusStress: xx yy zz yz xz xy
0.000789 0.001133 0.000305 0.000239 -0.000310 0.000010
Feature EFS_by vasp
Feature from database:p.cfg
Feature mindist 2.70
END_CFG

BEGIN_CFG
Size
12
Supercell
15.750000 0.000000 0.000000
0.000000 14.250000 0.000000
0.000000 0.000000 13.500000
AtomData: id type cartes_x cartes_y cartes_z fx fy fz
1 0 8.726102 8.203073 6.402160 -0.054182 -1.427035 1.175519
2 0 7.547319 8.795850 7.209332 -0.264616 -0.938932 -0.597814
3 0 6.920725 7.562954 7.924399 -0.718038 1.149273 -1.237808
4 0 7.463865 6.388381 7.143869 -0.534946 -0.606318 -0.205670
5 1 7.911481 9.549474 7.891704 0.276205 0.456862 0.257187
6 1 6.840644 9.275513 6.506288 0.146182 -0.031955 0.117487
7 1 7.094378 7.529525 8.973145 0.971267 -0.069522 1.129406
8 1 5.828832 7.579507 7.912200 -0.365056 0.070372 -0.423942
9 1 7.517970 5.521098 7.841963 0.486954 0.091577 -0.715359
10 1 6.799951 6.126731 6.252953 0.633089 0.146190 0.860736
11 2 9.610105 8.685956 5.751206 0.094208 0.813982 -0.334346
12 2 8.758152 6.802258 6.636431 -0.653508 0.342827 -0.043098
Energy
-71.468617230000
PlusStress: xx yy zz yz xz xy
0.000788 0.000713 0.000963 -0.000229 -0.000318 0.000042
Feature EFS_by vasp
Feature from database:p.cfg
Feature mindist 2.70
END_CFG

BEGIN_CFG
Size
12
Supercell
15.750000 0.000000 0.000000
0.000000 14.250000 0.000000
0.000000 0.000000 13.500000
AtomData: id type cartes_x cartes_y cartes_z fx fy fz
1 0 8.707041 8.168883 6.389645 1.222750 0.966622 0.171628
2 0 7.712172 8.786202 7.426044 1.262887 -0.697594 0.540884
3 0 6.918886 7.597330 7.952112 -1.005483 -0.762467 0.463725
4 0 7.530904 6.317830 7.210145 -0.410361 1.814384 0.761857
5 1 8.243913 9.156882 8.347640 0.138181 0.332467 -1.203964
6 1 7.208872 9.599392 6.895985 -0.361793 0.059597 0.292162
7 1 6.886936 7.503174 9.094039 0.571089 0.045085 -1.309239
8 1 5.848880 7.698845 7.722854 -0.059616 -0.148684 -0.304682
9 1 7.920248 5.616622 7.939290 0.135007 -0.503927 0.046213
10 1 6.802857 5.898134 6.528216 -0.331710 -0.532513 -0.119709
11 2 9.539458 8.751895 5.689940 -1.325132 -0.749838 0.871253
12 2 8.613007 6.803183 6.401992 0.174651 0.176487 -0.217492
Energy
-71.400211130000
PlusStress: xx yy zz yz xz xy
0.000635 0.000985 0.002269 0.000100 -0.000637 -0.000322
Feature EFS_by vasp
Feature from database:p.cfg
Feature mindist 2.70
END_CFG
