BEGIN_CFG
Size
13
Supercell
14.750000 0.000000 0.000000
0.000000 15.000000 0.000000
0.000000 0.000000 15.250000
AtomData: id type cartes_x cartes_y cartes_z fx fy fz
1 0 6.499077 8.677554 6.864738 0.614624 1.954637 -1.524284
2 0 7.872477 8.119554 6.448438 1.519533 0.073390 2.028673
3 0 8.077477 6.484354 8.282238 -0.477824 2.129499 -0.906294
4 0 6.675477 6.915054 8.675239 -0.956334 0.160548 -0.275533
5 1 8.108477 8.223554 5.417938 -0.498144 -0.409329 -1.452524
6 1 8.730477 8.791554 6.847738 -1.358499 -0.265323 0.205995
7 1 8.840477 7.031054 8.873238 0.034931 0.029152 -0.192383
8 1 8.179477 5.420354 8.488238 0.121318 -0.357238 -0.362445
9 1 5.943477 6.134254 8.329238 0.299603 0.708245 0.164519
10 1 6.567677 7.086354 9.746238 0.020747 -0.339058 0.345502
11 2 5.980877 9.589554 6.107838 1.072545 -3.517888 3.884478
12 2 8.225477 6.765254 6.850638 -0.279794 -0.446720 0.279298
13 2 6.174077 8.261554 8.193238 -0.135130 0.293023 -2.193092
Energy
-76.615936000000
PlusStress: xx yy zz yz xz xy
0.001904 0.002930 0.002531 -0.001832 0.000720 -0.000652
Feature EFS_by vasp
Feature from database:p.cfg
Feature mindist 2.70
END_CFG

BEGIN_CFG
Size
13
Supercell
14.750000 0.000000 0.000000
0.000000 15.000000 0.000000
0.000000 0.000000 15.250000
AtomData: id type cartes_x cartes_y cartes_z fx fy fz
1 0 6.694669 8.693728 6.871130 0.889364 -2.458902 1.395970
2 0 7.996662 8.042691 6.384128 -0.330452 0.001593 -0.730497
3 0 8.000371 6.708040 8.253261 0.092377 0.047241 0.887966
4 0 6.549439 6.926987 8.750433 1.583452 2.185056 -1.112220
5 1 8.066418 8.070304 5.274111 -0.462497 -0.164796 0.360523
6 1 8.888802 8.598374 6.697475 0.127935 0.371481 0.466694
7 1 8.589563 7.599243 8.605528 -0.094214 -0.597194 0.092011
8 1 8.466846 5.780155 8.656144 -0.257301 0.272714 -0.292031
9 1 5.876749 6.131244 8.459919 -0.449050 -0.274086 -0.075387
10 1 6.475600 7.240477 9.819661 0.106590 -0.585323 -0.493631
11 2 6.082967 9.538369 6.318823 -0.955556 2.464627 -1.696444
12 2 8.079699 6.694615 6.817948 -0.052689 -0.243630 0.597089
13 2 6.130589 8.206268 8.035591 -0.207399 -0.996563 0.604144
Energy
-77.207921970000
PlusStress: xx yy zz yz xz xy
0.001021 0.000537 0.001140 0.000332 -0.000970 0.000373
Feature EFS_by vasp
Feature from database:p.cfg
Feature mindist 2.70
END_CFG

BEGIN_CFG
Size
13
Supercell
14.750000 0.000000 0.000000
0.000000 15.000000 0.000000
0.000000 0.000000 15.250000
AtomData: id type cartes_x cartes_y cartes_z fx fy fz
1 0 6.620139 8.648686 6.889091 -0.030104 0.954842 -0.436194
2 0 7.806693 7.865976 6.260927 -0.209086 -0.989801 -0.374844
3 0 7.989577 6.733273 8.282501 0.160704 -0.401946 0.528144
4 0 6.555874 7.031550 8.661099 -0.245152 -1.273751 -1.079387
5 1 7.520824 7.505684 5.233059 0.089278 0.683730 0.628418
6 1 8.641904 8.583660 6.195842 -0.028728 0.013683 -0.088465
7 1 8.580933 7.549723 8.708270 0.528888 0.213981 0.278561
8 1 8.231611 5.779321 8.816005 0.214773 0.421855 -0.506734
9 1 5.882840 6.141970 8.452263 0.432844 0.823933 0.305889
10 1 6.630371 7.269425 9.708032 -0.526223 0.000460 0.890727
11 2 6.263394 9.725319 6.403976 0.394178 -1.318858 0.324828
12 2 8.283414 6.628506 6.901249 -1.021976 0.673892 -0.012725
13 2 6.002995 8.191335 8.016211 0.238310 0.200567 -0.477914
Energy
-77.363001510000
PlusStress: xx yy zz yz xz xy
0.001122 0.001770 0.000724 0.000083 -0.000137 -0.000266
Feature EFS_by vasp
Feature from database:p.cfg
Feature mindist 2.70
END_CFG

BEGIN_CFG
Size
13
Supercell
14.750000 0.000000 0.000000
0.000000 15.000000 0.000000
0.000000 0.000000 15.250000
AtomData: id type cartes_x cartes_y cartes_z fx fy fz
1 0 6.597785 8.670230 6.841680 0.814614 0.961380 0.203630
2 0 7.626983 7.686674 6.239621 0.811345 1.316122 -1.141338
3 0 8.078105 6.826895 8.395474 -1.983297 0.841803 -0.646447
4 0 6.524293 6.957492 8.532853 1.193968 0.276402 2.121946
5 1 7.203772 7.178198 5.353102 0.118539 0.567234 -0.160200
6 1 8.486499 8.374914 6.000346 -0.655922 -0.283348 -0.562059
7 1 8.573895 7.740467 8.842135 -0.124928 -0.484352 -0.617548
8 1 8.464198 5.935903 8.864436 0.144491 -0.526862 0.312493
9 1 6.053666 6.175025 7.982428 -0.410332 -1.054904 -0.407528
10 1 6.221389 6.902536 9.623044 -0.031655 0.292985 -0.948008
11 2 6.435957 9.836948 6.430012 -0.154712 -2.600635 0.701980
12 2 8.201964 6.636126 6.978910 0.677956 -0.331189 1.041352
13 2 6.051136 8.208499 8.003564 -0.396152 1.015176 0.105292
Energy
-77.090781340000
PlusStress: xx yy zz yz xz xy
0.001368 0.001571 0.000618 0.000037 0.000576 -0.000054
Feature EFS_by vasp
Feature from database:p.cfg
Feature mindist 2.70
END_CFG

BEGIN_CFG
Size
13
Supercell
14.750000 0.000000 0.000000
0.000000 15.000000 0.000000
0.000000 0.000000 15.250000
AtomData: id type cartes_x cartes_y cartes_z fx fy fz
1 0 6.692984 8.679827 6.858255 1.310515 -2.226220 0.290779
2 0 7.631411 7.759506 6.162237 -0.092526 -1.292897 1.740799
3 0 7.933211 6.702557 8.395994 0.054838 -0.674353 0.136417
4 0 6.466642 6.962719 8.673410 -0.433545 -0.071441 -2.328244
5 1 7.040448 7.263574 5.398345 0.059002 -0.114445 -0.719493
6 1 8.450082 8.345257 5.806787 0.642396 0.517172 -0.792328
7 1 8.504357 7.459463 8.972129 0.200510 0.113719 -0.318128
8 1 8.298976 5.683031 8.765059 -0.601101 1.014316 -0.405997
9 1 5.773445 6.200225 8.207600 0.667090 0.485115 0.274024
10 1 6.201769 7.047193 9.716272 -0.040996 0.459972 0.540272
11 2 6.496915 9.736669 6.364037 -1.216854 3.198035 -0.935710
12 2 8.189407 6.709362 6.986596 0.298151 -0.628830 0.311850
13 2 6.125889 8.282348 7.989053 -0.848725 -0.762359 2.206024
Energy
-77.178461090000
PlusStress: xx yy zz yz xz xy
0.000473 0.000014 0.000655 -0.000204 0.000490 0.000354
Feature EFS_by vasp
Feature from database:p.cfg
Feature mindist 2.70
END_CFG

BEGIN_CFG
Size
13
Supercell
14.750000 0.000000 0.000000
0.000000 15.000000 0.000000
0.000000 0.000000 15.250000
AtomData: id type cartes_x cartes_y cartes_z fx fy fz
1 0 6.772940 8.676181 6.929101 -0.933812 1.963979 -2.000817
2 0 7.798639 7.788084 6.250575 0.274233 -0.519975 0.305471
3 0 7.847316 6.697464 8.343083 0.252156 0.870959 -0.773621
4 0 6.411928 7.081175 8.608129 1.224654 -0.940007 1.365929
5 1 7.296259 7.530871 5.277452 0.816053 0.234410 0.444824
6 1 8.768163 8.375158 6.138085 -1.000017 -0.351110 -0.234622
7 1 8.538420 7.460210 8.767956 -0.163283 -0.029958 -0.055815
8 1 8.067142 5.777943 8.812937 0.399265 -1.471691 0.451799
9 1 5.756216 6.339182 8.178140 -0.617936 -0.290581 -0.655650
10 1 6.193523 7.053985 9.701412 0.174424 0.349942 -0.354612
11 2 6.414147 9.669629 6.260786 0.475523 -1.328205 1.763446
12 2 8.098438 6.545195 6.921112 -0.343459 0.183750 0.639547
13 2 6.197707 8.376074 8.126404 -0.560279 1.340169 -0.905621
Energy
-77.287076860000
PlusStress: xx yy zz yz xz xy
0.001140 -0.000010 0.001537 0.000044 -0.000252 0.000529
Feature EFS_by vasp
Feature from database:p.cfg
Feature mindist 2.70
END_CFG

BEGIN_CFG
Size
13
Supercell
14.750000 0.000000 0.000000
0.000000 15.000000 0.000000
0.000000 0.000000 15.250000
AtomData: id type cartes_x cartes_y cartes_z fx fy fz
1 0 6.844275 8.758780 6.832444 -1.440165 -1.804576 1.355714
2 0 7.971695 7.794291 6.411307 -0.215779 0.969337 -0.963841
3 0 7.821716 6.522406 8.300665 -0.005346 -0.827647 1.245813
4 0 6.516900 7.203997 8.707141 0.056260 -0.683693 0.644135
5 1 7.893684 7.719004 5.315661 0.162615 0.067934 0.041212
6 1 8.918815 8.287002 6.671056 0.377385 0.108763 0.014820
7 1 8.719396 7.041408 8.708084 -0.138865 -0.076239 0.140524
8 1 7.790561 5.439141 8.720433 0.178701 1.501686 -0.686535
9 1 5.724209 6.406261 8.618180 0.101646 1.009878 -0.151019
10 1 6.624755 7.480885 9.773163 -0.318217 0.029070 -0.121509
11 2 6.315535 9.675207 6.273620 0.842407 1.505395 -1.850558
12 2 7.927228 6.479896 6.908807 -0.265320 -0.361163 -0.622501
13 2 6.158753 8.418573 7.977127 0.652266 -1.442276 0.936857
Energy
-77.207032370000
PlusStress: xx yy zz yz xz xy
0.001033 0.001510 -0.000431 0.000375 0.000158 -0.000224
Feature EFS_by vasp
Feature from database:p.cfg
Feature mindist 2.70
END_CFG

BEGIN_CFG
Size
13
Supercell
14.750000 0.000000 0.000000
0.000000 15.000000 0.000000
0.000000 0.000000 15.250000
AtomData: id type cartes_x cartes_y cartes_z fx fy fz
1 0 6.763112 8.732926 6.816616 1.007380 -0.659516 0.900626
2 0 7.966062 7.857633 6.508880 -0.257888 -0.825489 -0.018463
3 0 7.828496 6.391441 8.296759 -0.366347 3.639373 -0.361829
4 0 6.618245 7.291418 8.784220 0.851058 -0.189849 0.776694
5 1 8.123685 7.882511 5.441669 -0.079543 -0.192815 -0.680355
6 1 8.890661 8.308751 6.932354 -0.176518 -0.226460 0.330181
7 1 8.801542 6.831371 8.632847 -0.244262 -0.374128 0.128922
8 1 7.697301 5.403741 8.637841 -0.162957 -1.491117 0.401246
9 1 5.819179 6.576942 8.910074 -0.823968 0.029403 0.318103
10 1 6.891711 7.816655 9.715997 -0.260059 -0.387805 0.133624
11 2 6.499210 9.715329 6.168455 -0.569145 0.448012 -0.194351
12 2 7.766532 6.459301 6.895286 0.736745 0.578280 -1.154050
13 2 6.085221 8.375697 7.950507 0.347302 -0.344344 -0.593317
Energy
-77.171628310000
PlusStress: xx yy zz yz xz xy
0.001016 0.001338 -0.000309 -0.000028 0.000313 -0.000207
Feature EFS_by vasp
Feature from database:p.cfg
Feature mindist 2.70
END_CFG

BEGIN_CFG
Size
13
Supercell
14.750000 0.000000 0.000000
0.000000 15.000000 0.000000
0.000000 0.000000 15.250000
AtomData: id type cartes_x cartes_y cartes_z fx fy fz
1 0 6.851971 8.686279 6.864475 -0.276594 2.758936 -2.930267
2 0 7.867316 7.749128 6.331596 1.370170 0.970324 -0.417905
3 0 7.749904 6.523678 8.360146 -1.102198 -1.477977 -0.670534
4 0 6.491108 7.236372 8.837445 0.232911 0.212257 -1.583230
5 1 7.823471 7.737732 5.203465 -0.381589 -0.443236 0.933613
6 1 8.879907 8.241506 6.501631 -0.470440 -0.359105 0.160649
7 1 8.662899 6.918070 8.794228 0.595296 0.165113 0.046168
8 1 7.583983 5.421547 8.588649 0.633178 1.059459 0.215010
9 1 5.667094 6.539187 8.651223 -0.359005 0.190103 0.355921
10 1 6.538898 7.616562 9.861585 -0.082329 -0.049421 0.086725
11 2 6.619430 9.725988 6.186629 0.072895 -1.697060 1.775010
12 2 7.772064 6.490624 6.909647 0.275816 -1.189253 0.513598
13 2 6.188070 8.413825 7.969464 -0.543332 -0.124471 1.512689
Energy
-77.205084080000
PlusStress: xx yy zz yz xz xy
0.000372 0.000905 0.001764 -0.000446 0.000119 0.000379
Feature EFS_by vasp
Feature from database:p.cfg
Feature mindist 2.70
END_CFG

BEGIN_CFG
Size
13
Supercell
14.750000 0.000000 0.000000
0.000000 15.000000 0.000000
0.000000 0.000000 15.250000
AtomData: id type cartes_x cartes_y cartes_z fx fy fz
1 0 6.839288 8.687380 6.821442 1.264997 -2.879091 1.961183
2 0 7.760918 7.582709 6.219764 -1.909836 0.380082 0.945828
3 0 7.723390 6.656337 8.390654 -0.077892 1.006721 -0.360858
4 0 6.333393 7.220998 8.601480 0.079490 -1.276340 0.745426
5 1 7.328402 7.347210 5.267917 -0.545971 -0.474077 -0.874069
6 1 8.676453 8.073845 5.951119 1.257496 0.351446 0.331314
7 1 8.472050 7.425385 8.779551 -0.457844 -0.674860 -0.463749
8 1 7.883778 5.732456 8.916360 0.098678 -0.784695 0.190983
9 1 5.553347 6.613121 8.063483 0.507664 0.175925 0.465861
10 1 6.118075 7.219770 9.694625 -0.202800 0.403582 -0.434809
11 2 6.709801 9.731799 6.319621 -0.536028 3.837700 -2.491253
12 2 7.839201 6.400689 6.982945 0.975379 -0.311877 0.182818
13 2 6.328511 8.537935 8.091647 -0.478219 0.260078 -0.190923
Energy
-77.220798830000
PlusStress: xx yy zz yz xz xy
0.000762 -0.001291 0.000345 0.001186 -0.000025 0.000304
Feature EFS_by vasp
Feature from database:p.cfg
Feature mindist 2.70
END_CFG

BEGIN_CFG
Size
13
Supercell
14.750000 0.000000 0.000000
0.000000 15.000000 0.000000
0.000000 0.000000 15.250000
AtomData: id type cartes_x cartes_y cartes_z fx fy fz
1 0 6.915806 8.711553 6.847485 -1.723799 1.903029 -0.442096
2 0 7.516874 7.477698 6.202772 1.616209 0.395755 -1.081146
3 0 7.672219 6.510082 8.357260 -1.245623 -0.267965 2.759277
4 0 6.349846 7.300502 8.631594 0.141810 -1.085076 0.836495
5 1 6.823342 7.038431 5.409960 0.503067 0.551089 0.875607
6 1 8.419157 7.947877 5.665120 -0.987046 -0.843322 0.304687
7 1 8.513747 6.879092 8.965873 0.077000 0.574023 0.090345
8 1 7.503561 5.474343 8.804277 -0.052676 0.696723 -0.601354
9 1 5.497436 6.717776 8.287665 -0.293426 -0.380131 -0.473177
10 1 6.161230 7.349461 9.737330 0.439669 0.514086 -0.617191
11 2 6.836255 9.823736 6.312258 0.813567 -1.407395 -0.130302
12 2 8.027944 6.415353 7.047769 -0.237179 0.254495 -2.242676
13 2 6.234738 8.604926 8.017530 0.940785 -0.894849 0.721500
Energy
-77.061383650000
PlusStress: xx yy zz yz xz xy
0.001530 0.001903 0.000155 -0.000164 0.000225 -0.000534
Feature EFS_by vasp
Feature from database:p.cfg
Feature mindist 2.70
END_CFG

BEGIN_CFG
Size
13
Supercell
14.750000 0.000000 0.000000
0.000000 15.000000 0.000000
0.000000 0.000000 15.250000
AtomData: id type cartes_x cartes_y cartes_z fx fy fz
1 0 6.913465 8.722270 6.822283 0.469489 2.224227 -0.234003
2 0 7.372899 7.474940 6.173199 -1.184114 -1.521906 1.540414
3 0 7.666278 6.609594 8.497438 -0.335291 -0.221037 -1.370456
4 0 6.296508 7.198205 8.544785 -0.317478 -0.001495 -0.620301
5 1 6.436403 7.044885 5.759130 0.205334 -0.006511 -0.435349
6 1 8.061849 7.721080 5.410759 0.983202 0.053235 -0.985498
7 1 8.477287 7.148058 8.989825 0.078090 0.598426 0.028167
8 1 7.631047 5.625235 8.952555 0.098315 -0.670447 -0.091037
9 1 5.658335 6.497938 7.930703 0.236113 0.831205 -0.054892
10 1 5.769513 7.253570 9.472641 -0.015935 0.198060 1.178736
11 2 7.030852 9.836988 6.285798 -0.415808 -1.532463 0.945049
12 2 7.919345 6.434023 7.055099 0.610884 0.282373 0.387420
13 2 6.358330 8.576385 8.059879 -0.402927 -0.233101 -0.302537
Energy
-77.174166090000
PlusStress: xx yy zz yz xz xy
0.000497 0.001029 0.000805 -0.000654 0.000449 0.000408
Feature EFS_by vasp
Feature from database:p.cfg
Feature mindist 2.70
END_CFG

BEGIN_CFG
Size
13
Supercell
14.750000 0.000000 0.000000
0.000000 15.000000 0.000000
0.000000 0.000000 15.250000
AtomData: id type cartes_x cartes_y cartes_z fx fy fz
1 0 6.982286 8.737635 6.858154 -0.607991 -3.732601 -0.010799
2 0 7.336567 7.412016 6.147031 1.483239 1.233479 0.534116
3 0 7.549275 6.553208 8.413942 1.257029 0.163919 0.425517
4 0 6.249494 7.293195 8.636282 -0.250057 0.055272 1.208893
5 1 6.410823 7.039525 5.707344 -0.249484 -0.252244 -0.488517
6 1 8.151946 7.683423 5.399562 -1.189726 -0.417955 0.392217
7 1 8.347646 7.156159 8.947177 -0.411554 -0.411692 -0.311100
8 1 7.607592 5.509917 8.842465 -0.395368 0.782030 -0.385852
9 1 5.377440 6.744073 8.270622 -0.245104 -0.073895 -0.341660
10 1 6.034916 7.549574 9.726526 0.442122 -0.662213 -0.946968
11 2 7.156433 9.758814 6.302110 0.287817 3.476478 -0.846410
12 2 7.933997 6.471016 7.018374 -0.188166 -0.989942 0.772772
13 2 6.323340 8.599794 8.043372 0.074113 0.832650 -0.001073
Energy
-77.207666440000
PlusStress: xx yy zz yz xz xy
0.001055 -0.000303 0.001152 0.000698 -0.000472 0.000016
Feature EFS_by vasp
Feature from database:p.cfg
Feature mindist 2.70
END_CFG

BEGIN_CFG
Size
13
Supercell
14.750000 0.000000 0.000000
0.000000 15.000000 0.000000
0.000000 0.000000 15.250000
AtomData: id type cartes_x cartes_y cartes_z fx fy fz
1 0 7.066359 8.707987 6.845130 -0.644280 2.233342 -0.289995
2 0 7.378386 7.388760 6.185131 -1.274414 -0.540508 0.969256
3 0 7.486224 6.559500 8.360304 -0.368851 -0.357268 1.447813
4 0 6.221070 7.327380 8.608897 0.018747 0.560727 -2.022776
5 1 6.321475 7.112548 5.850134 1.037880 -0.020901 -0.379170
6 1 8.105193 7.481495 5.408196 0.237744 0.239962 -0.954107
7 1 8.242130 7.114368 8.927268 0.566057 0.047450 0.111480
8 1 7.364655 5.577808 8.786119 0.094608 -0.773958 0.640393
9 1 5.303265 6.917882 8.122106 0.356486 0.019667 0.345842
10 1 6.106287 7.451034 9.658995 -0.408089 0.169806 1.095034
11 2 7.119131 9.818789 6.312532 0.615444 -1.153011 -0.163489
12 2 7.860443 6.340468 7.051190 -0.052756 0.490604 -1.432778
13 2 6.438819 8.681417 8.050937 -0.178032 -0.905778 0.627868
Energy
-77.199668650000
PlusStress: xx yy zz yz xz xy
0.000981 0.000703 -0.000877 0.000316 0.000306 -0.000003
Feature EFS_by vasp
Feature from database:p.cfg
Feature mindist 2.70
END_CFG

BEGIN_CFG
Size
13
Supercell
14.750000 0.000000 0.000000
0.000000 15.000000 0.000000
0.000000 0.000000 15.250000
AtomData: id type cartes_x cartes_y cartes_z fx fy fz
1 0 7.003410 8.752770 6.777897 0.760360 1.402550 0.837872
2 0 7.444626 7.399927 6.191818 0.912215 0.746862 -0.072322
3 0 7.446582 6.450619 8.454567 -0.848183 -0.011551 -0.633795
4 0 6.267469 7.410072 8.600056 0.110628 -1.078132 1.485867
5 1 6.645829 7.145854 5.498103 -0.129606 -0.324098 -0.564046
6 1 8.403162 7.626009 5.647904 -0.743530 -0.191679 0.069876
7 1 8.322978 6.860222 9.005965 -0.072697 -0.284644 -0.242717
8 1 7.132701 5.436913 8.813695 0.429128 0.595796 0.086594
9 1 5.385217 7.013404 8.095311 -0.366042 -0.336860 0.023103
10 1 6.059977 7.551096 9.695195 -0.093823 -0.013695 -0.700842
11 2 7.145208 9.877125 6.273604 -0.311141 -2.206483 0.307188
12 2 7.694121 6.261189 7.044640 0.037469 0.427360 0.225226
13 2 6.539841 8.681371 8.077531 0.323782 1.284941 -0.836351
Energy
-77.322180980000
PlusStress: xx yy zz yz xz xy
0.001007 0.001688 0.001041 -0.000268 0.000082 -0.000204
Feature EFS_by vasp
Feature from database:p.cfg
Feature mindist 2.70
END_CFG

BEGIN_CFG
Size
13
Supercell
14.750000 0.000000 0.000000
0.000000 15.000000 0.000000
0.000000 0.000000 15.250000
AtomData: id type cartes_x cartes_y cartes_z fx fy fz
1 0 7.018329 8.762866 6.817490 -0.144426 -2.815605 1.615982
2 0 7.592705 7.461521 6.266765 0.128625 0.010075 -1.123365
3 0 7.443371 6.441552 8.377798 0.071169 0.791961 -0.224904
4 0 6.341210 7.424151 8.736299 -0.743006 0.261144 -0.851103
5 1 7.286610 7.373379 5.177897 -0.064413 -0.214985 1.088642
6 1 8.648227 7.772992 6.187828 0.431829 -0.401161 0.128045
7 1 8.426616 6.863644 8.735016 -0.358200 -0.462346 -0.284013
8 1 7.219403 5.477064 8.857463 0.202095 0.025713 -0.017211
9 1 5.359416 7.018759 8.407239 0.261364 0.028359 0.162342
10 1 6.282983 7.643396 9.804627 0.149001 0.101814 0.170727
11 2 7.225769 9.762622 6.223730 0.013398 2.781491 -1.362595
12 2 7.436332 6.211979 6.951390 -0.068641 0.590591 0.308962
13 2 6.462176 8.755270 8.064157 0.123605 -0.696852 0.383068
Energy
-77.416478710000
PlusStress: xx yy zz yz xz xy
0.000780 0.000624 0.001180 0.000249 0.000269 -0.000008
Feature EFS_by vasp
Feature from database:p.cfg
Feature mindist 2.70
END_CFG

BEGIN_CFG
Size
13
Supercell
14.750000 0.000000 0.000000
0.000000 15.000000 0.000000
0.000000 0.000000 15.250000
AtomData: id type cartes_x cartes_y cartes_z fx fy fz
1 0 7.143194 8.691901 6.838782 0.579393 2.700420 -2.211517
2 0 7.797427 7.454209 6.268856 0.103487 0.868717 0.783022
3 0 7.319767 6.413726 8.327177 -0.209629 0.592107 1.076588
4 0 6.360575 7.477104 8.859044 0.803347 0.246251 0.143710
5 1 7.541441 7.351101 5.232874 -0.654168 0.024617 -0.844060
6 1 8.928000 7.619375 6.172192 -0.725470 -0.604217 0.966220
7 1 8.340594 6.661606 8.623397 0.484016 0.110956 0.238589
8 1 7.073279 5.448996 8.763615 -0.100602 -0.490851 -0.071727
9 1 5.307939 7.172802 8.917220 -0.118457 -0.070102 -0.467657
10 1 6.617679 7.852177 9.874189 0.129091 -0.327882 -0.245369
11 2 7.201451 9.770604 6.189133 -0.250752 -2.029479 1.640872
12 2 7.231181 6.353783 6.939141 0.402805 -1.591684 -0.979444
13 2 6.485874 8.648083 8.013468 -0.445399 0.591430 -0.030959
Energy
-77.191351470000
PlusStress: xx yy zz yz xz xy
0.001154 0.000404 0.000807 -0.000263 -0.000937 0.000179
Feature EFS_by vasp
Feature from database:p.cfg
Feature mindist 2.70
END_CFG

BEGIN_CFG
Size
13
Supercell
14.750000 0.000000 0.000000
0.000000 15.000000 0.000000
0.000000 0.000000 15.250000
AtomData: id type cartes_x cartes_y cartes_z fx fy fz
1 0 7.190496 8.776067 6.825571 -0.997538 -1.678754 0.474718
2 0 7.782721 7.354392 6.344004 -0.388194 1.769642 -1.024104
3 0 7.210366 6.380543 8.298070 0.617755 -1.194046 0.757426
4 0 6.421150 7.543620 8.797509 -0.710100 0.730693 -0.267173
5 1 7.889507 7.371896 5.225474 -1.008581 -0.294123 0.603116
6 1 8.824959 7.448147 6.584692 1.231923 -0.210694 0.867842
7 1 8.277382 6.418478 8.630456 -0.268655 0.112443 -0.101803
8 1 6.739369 5.520771 8.836990 0.382731 -0.006754 -0.660110
9 1 5.347822 7.284014 8.845021 -0.009826 0.192626 -0.358743
10 1 6.694744 7.792112 9.821057 0.314858 -0.037233 0.407247
11 2 7.188659 9.811291 6.214325 0.706364 0.329963 -0.827383
12 2 7.190236 6.174571 6.875878 -0.213888 0.940974 0.287615
13 2 6.553993 8.790249 8.050574 0.354811 -0.656590 -0.163886
Energy
-77.185482560000
PlusStress: xx yy zz yz xz xy
0.000589 0.001490 0.000923 0.000420 -0.000616 -0.000087
Feature EFS_by vasp
Feature from database:p.cfg
Feature mindist 2.70
END_CFG

BEGIN_CFG
Size
13
Supercell
14.750000 0.000000 0.000000
0.000000 15.000000 0.000000
0.000000 0.000000 15.250000
AtomData: id type cartes_x cartes_y cartes_z fx fy fz
1 0 7.229873 8.765944 6.802248 -0.510264 -0.578583 1.865273
2 0 7.674336 7.381003 6.290666 -0.043290 0.860715 0.105389
3 0 7.221484 6.359806 8.343436 0.166388 1.324012 0.292764
4 0 6.280534 7.500706 8.758512 0.155397 0.178559 -0.400991
5 1 7.391642 7.470738 5.248505 -0.393684 -0.731260 -0.585505
6 1 8.786566 7.366319 6.259571 -0.089545 -0.097499 0.390625
7 1 8.274064 6.603197 8.625490 -0.228516 -0.049083 -0.040658
8 1 6.971139 5.412010 8.802548 -0.344424 -0.471054 0.094143
9 1 5.278683 7.279470 8.331246 0.174031 0.034916 0.293222
10 1 6.185972 7.714182 9.849064 0.240736 -0.196322 -0.492539
11 2 7.319522 9.792053 6.163185 0.060322 -0.392514 0.455596
12 2 7.098113 6.239157 6.930097 0.457901 0.215745 -0.617333
13 2 6.719624 8.779649 8.151968 0.349864 -0.085170 -1.366571
Energy
-77.386534040000
PlusStress: xx yy zz yz xz xy
0.001223 0.001531 0.001526 -0.000429 -0.000459 -0.000098
Feature EFS_by vasp
Feature from database:p.cfg
Feature mindist 2.70
END_CFG

BEGIN_CFG
Size
13
Supercell
14.750000 0.000000 0.000000
0.000000 15.000000 0.000000
0.000000 0.000000 15.250000
AtomData: id type cartes_x cartes_y cartes_z fx fy fz
1 0 7.255717 8.715327 6.838827 0.042530 3.764203 0.156351
2 0 7.488701 7.417179 6.199097 1.497015 -1.135590 -0.663831
3 0 7.142254 6.332014 8.341753 -1.682788 0.580833 0.864418
4 0 6.274651 7.546858 8.767658 1.040772 0.045143 0.221744
5 1 6.881383 7.526630 5.253394 0.282774 -0.810354 0.643751
6 1 8.608628 7.341003 5.846433 -1.666399 0.302879 0.575302
7 1 8.113325 6.472915 8.802354 0.875134 -0.026095 0.111336
8 1 6.697443 5.362692 8.727522 0.333343 0.885581 -0.255397
9 1 5.216430 7.480728 8.543224 -0.499609 -0.505076 0.123362
10 1 6.485266 7.771737 9.824538 -0.454759 -0.200063 0.100431
11 2 7.524853 9.777640 6.210424 -0.656346 -2.456989 1.773365
12 2 7.168679 6.227804 6.960621 -0.142905 -0.170924 -1.975740
13 2 6.682924 8.795611 8.117317 1.030935 -0.269926 -1.660025
Energy
-77.155353080000
PlusStress: xx yy zz yz xz xy
0.001316 0.001841 0.001461 -0.001106 -0.000427 -0.000197
Feature EFS_by vasp
Feature from database:p.cfg
Feature mindist 2.70
END_CFG

BEGIN_CFG
Size
13
Supercell
14.750000 0.000000 0.000000
0.000000 15.000000 0.000000
0.000000 0.000000 15.250000
AtomData: id type cartes_x cartes_y cartes_z fx fy fz
1 0 7.223736 8.746317 6.835006 -1.512030 -4.046364 2.262325
2 0 7.406027 7.300239 6.192370 -0.831990 2.163056 -0.082393
3 0 7.169692 6.516572 8.234524 1.530012 -0.446115 1.971800
4 0 6.309490 7.577191 8.764190 -1.442548 1.421092 -1.531046
5 1 7.006266 7.354874 5.183402 -0.137702 -0.308245 -0.305055
6 1 8.457745 7.322193 6.194779 2.085837 -0.236848 -0.631417
7 1 8.245038 6.878645 8.499241 -0.966286 -0.845617 -0.508727
8 1 6.899507 5.678775 8.827497 0.238298 -1.564279 0.634401
9 1 5.215996 7.477241 8.507895 0.594330 -0.486157 0.693356
10 1 6.517016 7.811414 9.802293 -0.249559 -0.383785 0.616506
11 2 7.712541 9.698560 6.365004 1.210824 3.138030 -1.900798
12 2 7.000041 6.175393 6.906420 -0.799520 0.022326 -0.354406
13 2 6.682000 8.794843 8.106854 0.269923 1.569901 -0.866184
Energy
-76.862501130000
PlusStress: xx yy zz yz xz xy
0.000153 -0.001425 -0.000485 0.001424 0.000735 -0.000192
Feature EFS_by vasp
Feature from database:p.cfg
Feature mindist 2.70
END_CFG

BEGIN_CFG
Size
13
Supercell
14.750000 0.000000 0.000000
0.000000 15.000000 0.000000
0.000000 0.000000 15.250000
AtomData: id type cartes_x cartes_y cartes_z fx fy fz
1 0 7.349033 8.722483 6.833314 0.889534 1.552121 -1.428168
2 0 7.468568 7.357785 6.195829 0.565242 -0.123050 -0.128589
3 0 7.067577 6.329369 8.365394 -1.254238 0.128240 -0.621572
4 0 6.370287 7.577914 8.810380 0.273560 1.411217 0.760804
5 1 6.834289 7.379692 5.288079 0.873369 0.147249 -0.295059
6 1 8.605812 7.225099 6.042066 -1.382603 -0.328271 -0.226495
7 1 8.120176 6.464388 8.543705 0.984592 -0.366586 0.144628
8 1 6.639233 5.426650 8.928974 0.586360 0.852407 -1.143639
9 1 5.289526 7.533591 8.790343 -0.606158 -0.390294 -0.121077
10 1 6.651168 8.039505 9.793549 -0.025794 -1.037721 -0.121422
11 2 7.779818 9.796718 6.342933 -0.801977 -2.295381 0.736612
12 2 6.814344 6.290482 6.902943 0.471350 -0.634901 1.323031
13 2 6.703014 8.724666 7.974931 -0.572508 1.086446 1.099325
Energy
-77.030181280000
PlusStress: xx yy zz yz xz xy
0.000987 0.001699 0.000831 -0.000730 0.000214 0.000721
Feature EFS_by vasp
Feature from database:p.cfg
Feature mindist 2.70
END_CFG

BEGIN_CFG
Size
13
Supercell
14.750000 0.000000 0.000000
0.000000 15.000000 0.000000
0.000000 0.000000 15.250000
AtomData: id type cartes_x cartes_y cartes_z fx fy fz
1 0 7.430061 8.724417 6.925662 -1.689073 1.528032 -1.318453
2 0 7.485641 7.378210 6.311672 1.457756 -1.420001 -0.858324
3 0 6.952677 6.295794 8.201428 0.443502 2.731835 1.253385
4 0 6.326539 7.588871 8.807946 -0.000872 1.029272 -1.422297
5 1 7.107107 7.350551 5.274886 0.856985 0.733396 -0.028799
6 1 8.621756 7.168934 6.449044 -1.094940 -0.214178 -0.818240
7 1 8.040637 6.231842 8.447864 -0.249225 -0.022759 -0.001976
8 1 6.421193 5.559862 8.702537 -1.007472 -2.233631 0.690487
9 1 5.208311 7.636853 8.706173 0.674568 -0.206416 -0.502981
10 1 6.482131 7.823622 9.839273 0.641573 -0.360380 1.065570
11 2 7.746443 9.677202 6.197724 0.067353 -0.661332 1.634056
12 2 6.738926 6.292867 6.832924 -0.129775 -0.201771 0.257093
13 2 6.873451 8.860570 8.156721 0.024951 -0.696679 0.060510
Energy
-76.954948240000
PlusStress: xx yy zz yz xz xy
0.001639 0.000526 0.000040 0.000250 0.000131 -0.000158
Feature EFS_by vasp
Feature from database:p.cfg
Feature mindist 2.70
END_CFG

BEGIN_CFG
Size
13
Supercell
14.750000 0.000000 0.000000
0.000000 15.000000 0.000000
0.000000 0.000000 15.250000
AtomData: id type cartes_x cartes_y cartes_z fx fy fz
1 0 7.468043 8.706758 6.823071 -1.043019 -2.714072 2.916515
2 0 7.543549 7.283987 6.189151 -2.598564 0.931912 1.271328
3 0 6.739959 6.376633 8.240421 -0.649303 -1.082303 1.903138
4 0 6.282723 7.701480 8.774542 0.622470 0.300308 0.925127
5 1 7.079267 7.386427 5.229425 0.069979 0.068866 -1.071285
6 1 8.532810 6.944350 6.144080 1.959645 -0.452740 -0.161265
7 1 7.761660 6.305588 8.711729 -0.164809 -0.487785 -0.749789
8 1 6.085342 5.550573 8.762771 1.013468 1.049765 -1.343892
9 1 5.245702 7.996600 8.659415 -0.615475 -0.088733 -0.615800
10 1 6.419483 7.696068 9.900601 0.245585 0.111736 -0.863048
11 2 7.696927 9.736658 6.303851 0.852202 2.001390 -1.617328
12 2 6.705000 6.279909 6.827514 0.245454 0.221839 0.431093
13 2 7.124791 8.746096 8.221533 0.066939 0.153920 -1.019207
Energy
-77.040559800000
PlusStress: xx yy zz yz xz xy
0.000428 0.000499 0.001545 0.000324 -0.000379 0.000309
Feature EFS_by vasp
Feature from database:p.cfg
Feature mindist 2.70
END_CFG

BEGIN_CFG
Size
13
Supercell
14.750000 0.000000 0.000000
0.000000 15.000000 0.000000
0.000000 0.000000 15.250000
AtomData: id type cartes_x cartes_y cartes_z fx fy fz
1 0 7.435595 8.714892 6.866964 1.242798 0.927457 -0.088760
2 0 7.412570 7.281299 6.228749 0.621262 0.164847 -0.402257
3 0 6.742678 6.331201 8.222178 0.137832 1.669863 -0.285904
4 0 6.342398 7.694039 8.787039 -0.790181 0.157079 -0.811506
5 1 7.182171 7.406120 5.143685 0.044605 -0.196621 0.587137
6 1 8.447791 6.831352 6.340768 -0.356548 0.857161 -0.284975
7 1 7.766569 6.183668 8.567290 0.790927 -0.358433 -0.439025
8 1 6.164223 5.552259 8.632733 -1.068746 -1.089000 0.629684
9 1 5.268032 7.914336 8.566840 0.446838 -0.113229 0.100097
10 1 6.489787 7.756367 9.863780 0.171596 -0.007852 0.294551
11 2 7.911235 9.717425 6.302364 -1.026724 -2.047684 0.757790
12 2 6.550909 6.292810 6.799382 0.089559 0.583190 0.544500
13 2 7.128273 8.802749 8.211097 -0.304894 -0.538497 -0.584519
Energy
-77.376684340000
PlusStress: xx yy zz yz xz xy
0.000670 0.002213 0.001399 0.000080 0.000252 -0.000001
Feature EFS_by vasp
Feature from database:p.cfg
Feature mindist 2.70
END_CFG

BEGIN_CFG
Size
13
Supercell
14.750000 0.000000 0.000000
0.000000 15.000000 0.000000
0.000000 0.000000 15.250000
AtomData: id type cartes_x cartes_y cartes_z fx fy fz
1 0 7.462483 8.723598 6.851685 0.599026 -0.858901 0.736652
2 0 7.325433 7.359030 6.184678 1.038671 -1.648181 0.705522
3 0 6.784310 6.312399 8.197794 -0.465515 -0.124575 1.502161
4 0 6.411536 7.643227 8.859360 0.337025 0.466817 -0.314634
5 1 7.054052 7.466390 5.130187 -0.222421 -0.042843 0.001078
6 1 8.359540 6.822046 6.233692 -1.045688 1.155106 -0.271782
7 1 7.851530 6.098971 8.438871 -0.010726 -0.151262 -0.669129
8 1 6.169412 5.470973 8.668593 0.568307 0.916332 -0.514610
9 1 5.325262 7.697538 8.842564 -0.387703 0.366425 0.160899
10 1 6.816970 7.828929 9.879732 -0.252531 -0.442064 -0.351370
11 2 8.177713 9.580941 6.359859 -0.785993 0.055451 0.272694
12 2 6.433527 6.393037 6.835669 0.454355 0.618695 -0.687440
13 2 6.925114 8.842581 8.120973 0.178253 -0.290363 -0.561845
Energy
-77.305815200000
PlusStress: xx yy zz yz xz xy
0.001336 0.001993 0.001420 -0.000406 -0.000097 0.000329
Feature EFS_by vasp
Feature from database:p.cfg
Feature mindist 2.70
END_CFG

BEGIN_CFG
Size
13
Supercell
14.750000 0.000000 0.000000
0.000000 15.000000 0.000000
0.000000 0.000000 15.250000
AtomData: id type cartes_x cartes_y cartes_z fx fy fz
1 0 7.532643 8.649450 6.826472 -1.101428 -0.809264 1.957489
2 0 7.234556 7.391535 6.107311 -2.106173 0.158336 0.018420
3 0 6.727440 6.377691 8.235501 1.244285 1.235717 -0.530242
4 0 6.358851 7.689060 8.889106 0.010326 -0.290417 -1.014219
5 1 6.677133 7.539251 5.161891 0.125179 0.469670 0.162380
6 1 8.155536 6.991248 5.812679 1.968967 -1.074210 -0.399182