BEGIN_CFG
Size
16
Supercell
17.750000 0.000000 0.000000
0.000000 13.250000 0.000000
0.000000 0.000000 14.500000
AtomData: id type cartes_x cartes_y cartes_z fx fy fz
1 0 11.194706 6.382375 7.243600 -2.024852 -0.220591 0.106678
2 0 9.648706 6.683775 6.982900 0.455193 0.273354 2.132987
3 0 7.419006 6.365475 6.208700 1.407984 -0.991287 1.026165
4 0 6.845206 6.576575 7.645600 2.334376 0.103890 -0.999020
5 0 9.137706 7.203775 8.353600 2.080265 -0.314006 2.534083
6 1 11.699706 6.079675 6.391100 0.944918 -0.202608 -2.424635
7 1 11.379706 5.528975 7.885600 -0.564980 -0.334665 0.724693
8 1 11.685706 7.227775 7.710600 -0.070649 0.333836 -0.125830
9 1 9.465706 7.673775 6.598600 0.752606 1.111646 -1.642199
10 1 7.430006 7.268775 5.606700 0.194428 0.678482 -0.063808
11 1 6.878906 5.616775 5.621200 -0.345690 -0.161585 0.273125
12 1 6.701806 5.646375 8.137600 0.009642 -1.285483 0.489903
13 1 5.894706 7.044775 7.617600 -1.000407 1.089991 -0.013498
14 2 10.058706 7.557775 9.181600 -4.583986 -0.446541 -1.902025
15 2 7.746206 7.362775 8.556600 1.343129 -0.236375 -0.582769
16 2 8.813506 5.780575 6.258400 -0.923331 0.569342 0.422715
Energy
-92.802563500000
PlusStress: xx yy zz yz xz xy
0.004354 -0.000220 0.000908 0.000941 0.001781 0.000072
Feature EFS_by vasp
Feature from database:p.cfg
Feature mindist 2.70
END_CFG

BEGIN_CFG
Size
16
Supercell
17.750000 0.000000 0.000000
0.000000 13.250000 0.000000
0.000000 0.000000 14.500000
AtomData: id type cartes_x cartes_y cartes_z fx fy fz
1 0 11.073362 6.064173 6.990038 1.332262 0.361999 -1.333146
2 0 9.810617 6.893384 7.031777 -2.101981 -1.220393 0.417236
3 0 7.563393 6.414130 6.194481 -0.265079 0.611325 -0.410118
4 0 6.901092 6.540428 7.524945 -1.371973 0.606254 0.842022
5 0 9.169111 7.278608 8.417288 -0.407795 -0.682953 -0.684056
6 1 11.317627 5.857857 5.861585 -0.439775 0.282698 1.836097
7 1 11.007823 5.095048 7.512298 -0.326228 0.243949 -0.080930
8 1 11.946931 6.598441 7.406196 -0.192080 0.021949 -0.029658
9 1 9.850855 7.869877 6.477912 0.063727 -0.671535 -0.189414
10 1 7.590785 7.392009 5.625942 0.120709 -0.312417 0.593090
11 1 6.991206 5.761603 5.507481 0.230247 -0.344815 0.283165
12 1 6.677816 5.570752 8.069601 0.297555 0.622729 -0.803525
13 1 5.898267 7.097461 7.398998 1.251834 -0.425089 0.492675
14 2 9.806680 7.572801 9.400952 -0.118224 0.223551 0.010468
15 2 7.752675 7.297326 8.471500 0.730308 0.016590 -0.220893
16 2 8.845627 5.899692 6.438053 1.202722 0.675029 -0.711548
Energy
-93.646647630000
PlusStress: xx yy zz yz xz xy
0.001994 0.001903 0.002032 -0.000190 0.000071 0.000217
Feature EFS_by vasp
Feature from database:p.cfg
Feature mindist 2.70
END_CFG

BEGIN_CFG
Size
16
Supercell
17.750000 0.000000 0.000000
0.000000 13.250000 0.000000
0.000000 0.000000 14.500000
AtomData: id type cartes_x cartes_y cartes_z fx fy fz
1 0 11.100192 5.984426 7.173177 -1.268632 -0.021690 1.597705
2 0 9.737183 6.670086 7.036209 0.683909 2.096638 0.742865
3 0 7.639972 6.646570 6.166808 -1.098839 -0.424091 -0.256992
4 0 6.940319 6.606367 7.526774 1.799184 -0.102670 -0.593235
5 0 9.118537 7.191857 8.441563 0.213613 -0.760972 -0.533128
6 1 11.507676 5.789129 6.233114 0.597699 -0.379188 -1.998230
7 1 10.969241 5.016767 7.684358 0.085336 0.084404 0.067336
8 1 11.847929 6.576278 7.708262 -0.260980 0.228931 0.298937
9 1 9.854873 7.705299 6.549374 0.273113 -0.782950 0.259527
10 1 7.829114 7.666236 5.810927 -0.051836 0.564858 0.236971
11 1 6.988795 6.211928 5.390867 0.039609 -0.308073 0.111383
12 1 6.709049 5.610615 7.879625 -0.051315 -0.765696 -0.151043
13 1 6.042060 7.159314 7.503236 -1.296684 0.979001 0.002080
14 2 9.723587 7.660398 9.384605 0.897128 -0.103529 -0.419661
15 2 7.778289 7.201294 8.546423 -0.879523 0.105700 -0.004280
16 2 8.859908 5.945970 6.183613 0.326504 -0.410744 0.656755
Energy
-93.893960250000
PlusStress: xx yy zz yz xz xy
0.000038 0.000492 0.001169 -0.000037 -0.000406 -0.000042
Feature EFS_by vasp
Feature from database:p.cfg
Feature mindist 2.70
END_CFG

BEGIN_CFG
Size
16
Supercell
17.750000 0.000000 0.000000
0.000000 13.250000 0.000000
0.000000 0.000000 14.500000
AtomData: id type cartes_x cartes_y cartes_z fx fy fz
1 0 10.856238 5.859615 7.477202 2.307107 -0.431440 -0.828616
2 0 9.793717 6.824414 7.029563 -0.327520 -0.517808 0.372072
3 0 7.558417 6.701744 6.088748 1.530490 0.469106 0.032607
4 0 6.927064 6.613687 7.441530 -1.070241 0.281399 0.608860
5 0 9.172912 7.216597 8.366789 0.295196 0.975341 1.455326
6 1 11.566574 5.515408 6.643877 -1.172501 0.242546 0.665876
7 1 10.389406 4.993001 7.964974 0.202916 -0.023258 0.012499
8 1 11.532891 6.404445 8.175502 -0.455374 -0.403610 -0.065007
9 1 10.242240 7.662149 6.490084 0.018166 0.566427 0.050577
10 1 7.676527 7.749529 5.754785 -0.165560 0.076242 0.023650
11 1 6.977728 6.165812 5.329962 0.130140 -0.209095 -0.024690
12 1 6.589740 5.568946 7.661704 0.150751 0.541186 -0.055991
13 1 6.039270 7.335060 7.558981 0.887166 -0.946323 -0.270333
14 2 9.846502 7.625824 9.339828 -1.635843 -0.644081 -1.942252
15 2 7.826994 6.992887 8.515860 0.480766 0.300156 0.425516
16 2 8.905234 6.122633 6.163180 -1.178053 -0.280394 -0.435581
Energy
-93.879847000000
PlusStress: xx yy zz yz xz xy
0.002080 0.000902 0.001485 0.000198 0.000449 0.000288
Feature EFS_by vasp
Feature from database:p.cfg
Feature mindist 2.70
END_CFG

BEGIN_CFG
Size
16
Supercell
17.750000 0.000000 0.000000
0.000000 13.250000 0.000000
0.000000 0.000000 14.500000
AtomData: id type cartes_x cartes_y cartes_z fx fy fz
1 0 10.920786 5.552782 7.261938 -1.222485 0.764414 1.081724
2 0 9.831266 6.660149 7.251049 0.402236 -0.275730 -1.761862
3 0 7.757284 6.916574 6.155489 -1.627439 0.821360 -0.411326
4 0 6.918276 6.476911 7.351362 2.933106 0.703073 0.605615
5 0 9.111893 7.145077 8.508495 -1.973044 -1.134941 -2.718131
6 1 11.141388 5.257395 6.254129 0.036991 -0.058267 -0.802894
7 1 10.535445 4.695241 7.804532 -0.067039 -0.459910 0.171422
8 1 11.825407 5.882056 7.737797 0.627776 0.323600 0.431147
9 1 10.266936 7.609916 6.859260 0.215918 -0.130944 0.353461
10 1 7.933801 8.035122 6.237554 -0.421490 -0.571568 -0.273320
11 1 7.289763 6.655585 5.177548 -0.079325 0.299615 0.373484
12 1 6.836951 5.392486 7.440662 0.010990 -0.202819 0.048800
13 1 6.004020 6.978228 7.475123 -1.606282 0.636038 -0.016160
14 2 9.698711 7.844693 9.260945 0.922255 1.091710 2.455734
15 2 7.705138 7.049173 8.532711 0.468623 -0.649414 0.121185
16 2 8.950145 6.251741 6.168830 1.380877 -1.160888 0.333670
Energy
-93.603786040000
PlusStress: xx yy zz yz xz xy
0.000456 0.000717 0.000162 -0.000167 -0.000345 0.000326
Feature EFS_by vasp
Feature from database:p.cfg
Feature mindist 2.70
END_CFG

BEGIN_CFG
Size
16
Supercell
17.750000 0.000000 0.000000
0.000000 13.250000 0.000000
0.000000 0.000000 14.500000
AtomData: id type cartes_x cartes_y cartes_z fx fy fz
1 0 10.662868 5.553571 7.541440 1.154305 -1.295780 0.897576
2 0 9.847041 6.738002 7.152266 -0.357451 0.195599 -1.521776
3 0 7.715651 6.958680 6.094665 1.634303 -0.595158 0.327138
4 0 7.026006 6.569113 7.368941 -1.903463 0.227331 0.182565
5 0 9.116846 7.171968 8.426144 0.001743 1.268809 1.077668
6 1 11.379106 5.285328 6.728830 -0.274147 0.097193 0.474139
7 1 10.047781 4.629452 7.780508 0.312736 0.961051 -0.345310
8 1 11.209683 5.813795 8.494671 -0.095311 -0.288731 -0.867298
9 1 10.478776 7.582095 6.746404 -0.331756 -0.444760 0.779850
10 1 7.835816 8.043792 6.171859 0.141857 0.447625 -0.517592
11 1 7.177458 6.652084 5.210824 -0.492399 0.025525 -0.401541
12 1 6.710833 5.505863 7.430040 0.179083 0.241672 -0.125814
13 1 6.094382 7.236357 7.495548 0.803677 -0.967338 -0.423330
14 2 9.728409 7.740878 9.350855 -1.213476 -1.236301 -1.608670
15 2 7.763565 6.889571 8.550373 1.655102 0.366294 0.372045
16 2 9.046701 6.319941 5.952873 -1.210316 1.002688 1.720779
Energy
-93.794520740000
PlusStress: xx yy zz yz xz xy
0.001562 0.001491 0.002122 0.000554 -0.000335 0.000329
Feature EFS_by vasp
Feature from database:p.cfg
Feature mindist 2.70
END_CFG

BEGIN_CFG
Size
16
Supercell
17.750000 0.000000 0.000000
0.000000 13.250000 0.000000
0.000000 0.000000 14.500000
AtomData: id type cartes_x cartes_y cartes_z fx fy fz
1 0 10.584086 5.464057 7.605064 0.025186 0.653112 -1.246491
2 0 9.851318 6.768141 7.185978 0.524120 -1.072601 0.160864
3 0 7.708148 6.880726 5.992454 0.730687 0.480228 -0.775937
4 0 6.972068 6.636406 7.279734 2.116328 -1.691539 0.776859
5 0 9.152382 7.203711 8.448502 -0.161155 -0.009643 0.232091
6 1 11.024756 5.003188 6.707936 0.188066 0.081772 0.191855
7 1 9.923937 4.762560 8.052623 -1.182482 -0.851645 0.255133
8 1 11.287419 5.654777 8.385653 1.039785 0.414950 0.420982
9 1 10.546151 7.493907 6.829474 1.096341 0.954631 0.282358
10 1 7.609566 7.980054 5.832996 0.262923 -0.184155 -0.414413
11 1 7.350246 6.312670 5.102490 -0.445962 0.447925 0.555003
12 1 6.731623 5.586806 7.473286 -0.088873 -0.322205 -0.243965
13 1 6.084590 7.199431 7.406811 -1.054214 0.939050 -0.050186
14 2 9.705066 7.559958 9.490901 -0.360399 -0.176274 -1.193146
15 2 7.824274 6.975637 8.446065 -1.177606 0.567540 0.463054
16 2 9.108182 6.490754 5.987690 -1.508444 -0.227712 0.604127
Energy
-93.660220050000
PlusStress: xx yy zz yz xz xy
-0.000172 0.000427 0.001478 0.000285 0.000301 -0.000434
Feature EFS_by vasp
Feature from database:p.cfg
Feature mindist 2.70
END_CFG

BEGIN_CFG
Size
16
Supercell
17.750000 0.000000 0.000000
0.000000 13.250000 0.000000
0.000000 0.000000 14.500000
AtomData: id type cartes_x cartes_y cartes_z fx fy fz
1 0 10.725461 5.391606 7.426659 -0.085598 -1.931265 2.370363
2 0 9.787046 6.549874 7.342716 0.714524 0.987351 -2.335935
3 0 7.914068 7.144045 6.065020 -1.064171 -0.052431 0.045528
4 0 7.088274 6.555950 7.199950 -2.056765 2.005234 0.863614
5 0 8.998145 7.110211 8.526368 -0.357893 -0.994624 -2.211986
6 1 11.275670 5.378016 6.484126 0.182001 -0.313412 -0.003206
7 1 10.246521 4.351953 7.664998 0.491318 1.605750 -0.659644
8 1 11.409285 5.576638 8.304357 -0.209496 -0.126726 -0.808706
9 1 10.512452 7.368116 7.030348 -0.684305 0.013176 0.894544
10 1 8.006398 8.271351 6.266563 0.300166 -1.042214 -0.182427
11 1 7.548901 7.034219 5.044500 -0.639410 -0.101773 -0.175492
12 1 7.126705 5.472231 7.388185 0.222349 0.066705 -0.517063
13 1 5.988531 6.888499 7.225216 1.244763 -0.394906 -0.145344
14 2 9.652224 7.545673 9.417760 0.511906 0.959834 2.455121
15 2 7.640906 7.243145 8.405364 0.296083 -0.700256 0.279182
16 2 9.063219 6.366957 6.088698 1.134536 0.008916 0.128215
Energy
-93.359662850000
PlusStress: xx yy zz yz xz xy
0.000314 0.001707 0.000239 -0.000537 -0.000731 0.000453
Feature EFS_by vasp
Feature from database:p.cfg
Feature mindist 2.70
END_CFG

BEGIN_CFG
Size
16
Supercell
17.750000 0.000000 0.000000
0.000000 13.250000 0.000000
0.000000 0.000000 14.500000
AtomData: id type cartes_x cartes_y cartes_z fx fy fz
1 0 10.680694 5.481034 7.609751 1.222206 1.268997 0.116498
2 0 9.842982 6.728188 7.234829 1.481989 -1.123972 -0.706237
3 0 7.890767 7.035670 5.958490 0.014985 -0.195588 -1.045518
4 0 6.995077 6.980445 7.160977 0.027975 -1.231226 -0.032197
5 0 9.081454 7.104277 8.441322 -0.461525 0.464145 2.666882
6 1 11.486320 5.315738 6.871736 -0.289483 -0.024058 0.075680
7 1 10.034799 4.648527 7.656114 -0.921128 -1.280691 -0.109719
8 1 11.125845 5.596619 8.603943 0.160321 0.179136 -0.005757
9 1 10.535572 7.508257 6.883546 -0.016810 0.454773 0.389655
10 1 8.140966 8.048201 5.673877 0.190985 1.024406 0.105230
11 1 7.363997 6.648354 5.064328 0.087065 -0.213555 0.266001
12 1 6.376349 6.065811 7.188182 0.144661 -0.047226 -0.123734
13 1 6.313408 7.809369 7.176081 -0.535559 0.841595 -0.004878
14 2 9.610321 7.358317 9.541986 -0.794288 -0.242515 -1.986512
15 2 7.711539 6.981944 8.397085 0.699258 0.479006 0.612692
16 2 9.097095 6.300431 6.107521 -1.021600 -0.350684 -0.208286
Energy
-93.903199190000
PlusStress: xx yy zz yz xz xy
0.000439 -0.000142 0.000784 -0.000063 0.000046 -0.000033
Feature EFS_by vasp
Feature from database:p.cfg
Feature mindist 2.70
END_CFG

BEGIN_CFG
Size
16
Supercell
17.750000 0.000000 0.000000
0.000000 13.250000 0.000000
0.000000 0.000000 14.500000
AtomData: id type cartes_x cartes_y cartes_z fx fy fz
1 0 10.917140 5.594625 7.615384 -1.021916 -1.272208 0.570745
2 0 9.811103 6.595269 7.267947 1.248567 -0.188217 -1.347675
3 0 8.009086 7.174953 5.965009 0.748633 0.247764 -0.815146
4 0 7.009232 7.188622 7.086754 -0.299322 0.577081 0.458413
5 0 9.030903 6.994072 8.460544 -2.118284 -0.340234 -0.574300
6 1 11.282157 5.083838 6.701302 -0.296731 0.107940 0.255364
7 1 10.463507 4.847275 8.353697 0.857149 0.536651 -0.890419
8 1 11.776187 6.083540 8.080491 -0.064659 0.145425 0.206552
9 1 10.341939 7.492824 6.915587 0.005580 0.465221 -0.084072
10 1 8.602692 8.117117 5.807449 -0.564858 -0.084408 0.526498
11 1 7.465177 7.068692 5.022866 0.063754 -0.592659 -0.309458
12 1 6.243410 6.382357 7.023743 0.382399 0.220606 -0.164038
13 1 6.478220 8.179885 7.159753 0.206227 -0.610873 -0.313294
14 2 9.456248 7.211130 9.549421 1.734884 0.375085 2.009456
15 2 7.663844 7.030573 8.356570 -0.279782 0.039588 -0.054605
16 2 9.004046 6.134478 6.151213 -0.593878 0.365068 0.532509
Energy
-93.865047880000
PlusStress: xx yy zz yz xz xy
0.001079 0.000986 -0.000242 -0.000340 -0.000713 -0.000000
Feature EFS_by vasp
Feature from database:p.cfg
Feature mindist 2.70
END_CFG

BEGIN_CFG
Size
16
Supercell
17.750000 0.000000 0.000000
0.000000 13.250000 0.000000
0.000000 0.000000 14.500000
AtomData: id type cartes_x cartes_y cartes_z fx fy fz
1 0 10.886810 5.567789 7.434102 1.622725 0.687889 -0.194528
2 0 9.801205 6.567213 7.378871 -0.085160 0.951458 -0.663269
3 0 8.107490 7.125115 5.871615 -0.922888 0.507703 0.146739
4 0 7.074311 7.142460 7.001511 0.267980 0.318851 -0.189621
5 0 8.909989 6.917966 8.580775 2.184127 0.347958 0.486666
6 1 11.268267 5.604492 6.409853 0.173107 -0.292075 -0.309080
7 1 10.563597 4.569727 7.601572 -0.261941 -1.079019 0.619872
8 1 11.763416 5.902214 8.018904 -0.480802 -0.363061 0.420959
9 1 10.347290 7.541403 7.112889 -0.792425 -0.455933 0.322741
10 1 8.668061 8.074169 5.751362 -0.423646 0.324311 0.149536
11 1 7.655360 6.903475 4.883395 0.054723 -0.251233 0.326280
12 1 6.538243 6.198013 7.132504 -0.094223 -0.290269 -0.528685
13 1 6.361317 7.955793 6.988286 -0.488754 0.396888 -0.497088
14 2 9.352450 7.062179 9.719194 -0.307635 -0.462386 -0.594905
15 2 7.708600 7.365602 8.272305 -1.032448 0.403193 0.727135
16 2 9.029314 6.150445 6.235251 0.594385 -0.746825 -0.203946
Energy
-93.745733730000
PlusStress: xx yy zz yz xz xy
-0.000249 -0.000210 0.000843 0.000106 -0.000743 0.001143
Feature EFS_by vasp
Feature from database:p.cfg
Feature mindist 2.70
END_CFG

BEGIN_CFG
Size
16
Supercell
17.750000 0.000000 0.000000
0.000000 13.250000 0.000000
0.000000 0.000000 14.500000
AtomData: id type cartes_x cartes_y cartes_z fx fy fz
1 0 10.799538 5.546915 7.804541 1.067213 -0.687884 -1.347888
2 0 9.850412 6.621368 7.273011 0.772703 1.375758 0.929454
3 0 7.961831 7.085695 5.919766 1.623251 -1.116063 -1.600417
4 0 7.040241 7.161456 7.030651 -0.331326 0.007789 2.332401
5 0 8.970360 6.973317 8.445708 -0.517540 -0.865160 1.401425
6 1 11.837916 5.459550 7.330484 -1.218274 0.517182 0.310275
7 1 10.288027 4.590109 7.527583 0.304175 0.267903 0.648080
8 1 10.887944 5.733560 8.896617 0.124504 -0.583951 -0.671980
9 1 10.300435 7.644460 7.120204 0.585904 -0.371891 -0.135109
10 1 8.317932 8.083481 5.636851 -0.224312 0.274946 -0.346340
11 1 7.438298 6.534832 5.126393 0.111069 0.441092 -0.512219
12 1 6.577994 6.207814 7.365242 -0.052325 0.171638 -0.614172
13 1 6.264757 7.922096 6.813153 0.131264 -0.194669 0.274736
14 2 9.355521 6.704186 9.578247 -0.856238 1.146388 0.159951
15 2 7.763119 7.582559 8.257022 -0.116608 0.171482 -0.127621
16 2 9.168166 6.276114 6.116376 -1.399926 -0.561136 -0.680478
Energy
-93.452962680000
PlusStress: xx yy zz yz xz xy
0.001114 0.001027 -0.000429 -0.000444 0.000610 -0.000170
Feature EFS_by vasp
Feature from database:p.cfg
Feature mindist 2.70
END_CFG

BEGIN_CFG
Size
16
Supercell
17.750000 0.000000 0.000000
0.000000 13.250000 0.000000
0.000000 0.000000 14.500000
AtomData: id type cartes_x cartes_y cartes_z fx fy fz
1 0 10.829928 5.378573 7.542964 -0.138167 0.666463 -0.014906
2 0 9.884651 6.570995 7.407846 -2.179633 -1.498284 -0.103252
3 0 8.135866 7.228380 5.808404 0.575737 -0.856238 1.168503
4 0 7.149154 7.199638 6.965974 -1.009632 0.343813 -0.533301
5 0 8.897115 6.893175 8.597308 -0.437300 0.744417 -1.838435
6 1 11.369829 5.367470 6.602270 0.326510 -0.136155 -0.447647
7 1 10.395331 4.369813 7.675889 -0.253037 0.564256 0.204031
8 1 11.552726 5.621533 8.304121 0.450576 -0.223303 0.704664
9 1 10.402268 7.527180 7.342143 0.586505 0.387916 -0.428953
10 1 8.605961 8.242403 5.631164 -0.513669 -0.651478 0.031998
11 1 7.700145 6.763224 4.916029 -0.168364 0.478702 -0.241188
12 1 6.707965 6.194067 7.168482 0.152443 0.261253 -0.737460
13 1 6.325928 7.915244 6.776850 0.011669 -0.107454 0.146289
14 2 9.148255 6.824081 9.760325 0.535722 -0.321112 1.307639
15 2 7.723409 7.586915 8.211649 1.213110 -0.381687 0.604092
16 2 9.137527 6.251373 6.180635 0.845390 0.724754 0.189760
Energy
-93.801197540000
PlusStress: xx yy zz yz xz xy
0.000730 0.001818 0.000438 -0.000067 -0.000549 -0.000039
Feature EFS_by vasp
Feature from database:p.cfg
Feature mindist 2.70
END_CFG

BEGIN_CFG
Size
16
Supercell
17.750000 0.000000 0.000000
0.000000 13.250000 0.000000
0.000000 0.000000 14.500000
AtomData: id type cartes_x cartes_y cartes_z fx fy fz
1 0 10.797751 5.336241 7.740711 0.043093 0.529831 -0.650326
2 0 9.841433 6.505782 7.362410 -0.659825 0.626637 0.391887
3 0 8.340654 7.408842 5.876370 -1.455282 -0.916567 -0.644415
4 0 7.171224 7.449165 6.856167 0.061075 -1.022377 0.676784
5 0 8.860509 6.903387 8.498652 1.394310 -0.958785 2.526083
6 1 11.170308 4.847072 6.783343 -0.030266 0.721892 1.002307
7 1 10.217652 4.587336 8.262265 -0.339630 -0.477336 0.259797
8 1 11.609824 5.644425 8.469583 -0.676447 -0.101753 -1.046028
9 1 10.343434 7.505641 7.250747 0.494307 -0.604851 -0.372484
10 1 8.983541 8.287169 5.840566 0.114482 0.532940 -0.019926
11 1 7.953385 7.113683 4.882494 -0.288896 0.980173 -0.081407
12 1 6.538850 6.573064 6.679990 -0.187290 -0.044187 -0.417748
13 1 6.529307 8.323218 6.868251 0.047997 0.589918 -0.042947
14 2 9.255754 6.905654 9.679050 -0.304523 0.012686 -1.395789
15 2 7.578459 7.202376 8.276112 -0.167486 0.816429 -1.319254
16 2 9.070872 6.249576 6.149809 1.935438 -0.698498 1.156456
Energy
-93.700227960000
PlusStress: xx yy zz yz xz xy
0.000961 0.000909 0.001814 0.000539 -0.000126 -0.000087
Feature EFS_by vasp
Feature from database:p.cfg
Feature mindist 2.70
END_CFG

BEGIN_CFG
Size
16
Supercell
17.750000 0.000000 0.000000
0.000000 13.250000 0.000000
0.000000 0.000000 14.500000
AtomData: id type cartes_x cartes_y cartes_z fx fy fz
1 0 10.498155 5.209851 7.828751 -1.281668 -0.655971 -0.401192
2 0 9.941680 6.539870 7.353422 -1.754725 0.095365 1.261816
3 0 8.295666 7.464710 5.846423 2.306907 -0.488767 0.312723
4 0 7.237307 7.493422 6.892006 -2.068221 0.596634 0.315843
5 0 8.912448 6.934770 8.510053 0.312043 -0.235573 -1.014207
6 1 11.350539 4.972702 7.232273 0.904121 -0.496336 -0.449103
7 1 9.734074 4.384936 7.749319 0.476482 0.660937 -0.158722
8 1 10.735122 5.288191 8.873228 0.525125 0.102383 0.663699
9 1 10.788208 7.271563 7.322730 -0.567921 0.067309 -0.314050
10 1 8.883556 8.414194 5.776979 -0.149268 -0.368243 0.086757
11 1 7.902977 7.226573 4.859920 -0.234194 0.050988 -0.215203
12 1 6.387502 6.884182 6.551915 -0.046975 -0.179668 0.129692
13 1 6.804882 8.510009 7.096227 0.383589 -0.322337 -0.510175
14 2 9.264008 6.983548 9.659494 0.119006 0.193292 0.944940
15 2 7.568557 7.005567 8.200523 1.246279 0.010054 0.003377
16 2 9.214808 6.334637 6.146046 -0.176389 0.958953 -0.648108
Energy
-93.768977360000
PlusStress: xx yy zz yz xz xy
0.001239 0.001225 0.000078 -0.000065 -0.000229 0.000182
Feature EFS_by vasp
Feature from database:p.cfg
Feature mindist 2.70
END_CFG

BEGIN_CFG
Size
16
Supercell
17.750000 0.000000 0.000000
0.000000 13.250000 0.000000
0.000000 0.000000 14.500000
AtomData: id type cartes_x cartes_y cartes_z fx fy fz
1 0 10.477674 4.964321 7.600491 -0.337712 0.980565 0.116756
2 0 9.838839 6.414535 7.471197 0.519368 -1.381079 0.835515
3 0 8.478886 7.522153 6.006209 -0.639607 1.789557 -1.542826
4 0 7.207627 7.263913 6.775254 0.709870 -0.709112 0.410525
5 0 8.841725 6.905792 8.545223 -0.446288 0.109819 0.356374
6 1 11.198140 4.847496 6.739714 -0.538376 0.081001 0.833617
7 1 9.668607 4.236987 7.506315 -0.113888 -0.215145 -0.212732
8 1 10.950366 4.775484 8.584886 0.065373 0.331311 -0.385933
9 1 10.650520 7.138650 7.595690 0.426230 0.378048 -0.132500
10 1 9.017790 8.461370 6.302357 -0.529250 -0.096873 0.141278
11 1 8.325592 7.623992 4.905835 -0.291960 -0.087991 0.390030
12 1 6.816283 6.262115 6.474892 0.142588 0.308371 0.300264
13 1 6.414494 7.977858 6.700873 -0.558077 0.803822 -0.348033
14 2 9.170619 7.103419 9.696468 0.373670 -0.337297 0.239577
15 2 7.560146 7.299038 8.199124 0.369266 -0.686467 -0.444469
16 2 9.318581 6.452395 6.175455 0.843245 -1.266315 -0.548289
Energy
-93.893655510000
PlusStress: xx yy zz yz xz xy
0.000892 0.000830 0.000444 0.000521 -0.000706 0.000111
Feature EFS_by vasp
Feature from database:p.cfg
Feature mindist 2.70
END_CFG

BEGIN_CFG
Size
16
Supercell
17.750000 0.000000 0.000000
0.000000 13.250000 0.000000
0.000000 0.000000 14.500000
AtomData: id type cartes_x cartes_y cartes_z fx fy fz
1 0 10.135359 5.040908 7.810581 -0.194938 -0.878715 1.088751
2 0 9.906748 6.493021 7.513751 0.206278 0.057336 -1.697006
3 0 8.411779 7.539404 5.848157 0.615346 -1.561124 0.170474
4 0 7.275104 7.230103 6.783500 -1.165516 1.491646 -0.167874
5 0 8.895879 6.895609 8.518384 -0.992979 1.115209 2.176703
6 1 10.777389 4.610010 7.054623 0.155551 -0.407898 -0.391088
7 1 9.170261 4.492044 7.945389 0.565216 0.092012 -0.430071
8 1 10.641063 4.997537 8.799882 -0.082039 -0.141126 -0.389433
9 1 10.894491 6.988981 7.704895 -0.729195 0.320214 -0.253295
10 1 8.756099 8.562917 5.862951 0.215952 0.775903 0.464873
11 1 8.058784 7.366560 4.828055 0.053269 -0.248195 -0.278192
12 1 6.803314 6.252878 6.606000 0.152673 -0.079956 -0.157356
13 1 6.486279 8.038440 6.654384 0.508333 -0.802313 0.015972
14 2 9.162934 6.832467 9.719798 -0.124903 0.173535 -0.946913
15 2 7.620111 7.318614 8.179571 1.195686 -0.459925 -0.106355
16 2 9.522246 6.608346 6.074275 -0.376904 0.557267 0.895599
Energy
-93.875471870000
PlusStress: xx yy zz yz xz xy
0.001696 0.000263 0.001198 -0.000538 0.000309 0.000003
Feature EFS_by vasp
Feature from database:p.cfg
Feature mindist 2.70
END_CFG

BEGIN_CFG
Size
16
Supercell
17.750000 0.000000 0.000000
0.000000 13.250000 0.000000
0.000000 0.000000 14.500000
AtomData: id type cartes_x cartes_y cartes_z fx fy fz
1 0 10.132838 4.880298 7.703217 -0.647510 1.380394 -0.844161
2 0 9.810251 6.434444 7.536160 2.057718 -1.436730 0.730474
3 0 8.504305 7.522221 5.821549 0.769834 0.349438 -0.487260
4 0 7.307478 7.373476 6.752544 1.118497 -2.351869 -0.105323
5 0 8.828089 6.871921 8.603915 -0.286325 0.353357 -2.014731
6 1 11.001631 4.592347 7.093974 -0.061058 0.202394 -0.055346
7 1 9.228028 4.435470 7.248512 0.279630 -0.508041 0.417352
8 1 10.321225 4.599838 8.735343 -0.229739 -0.076724 0.333643
9 1 10.708199 7.019338 7.767223 0.382753 0.049286 0.370158
10 1 8.909361 8.575524 5.754043 -0.441187 -0.529892 0.281043
11 1 8.218726 7.216204 4.793079 -0.097066 0.236902 0.279145
12 1 6.863437 6.362606 6.642887 -0.219455 0.288655 -0.773016
13 1 6.558213 8.120651 6.628534 -0.659080 0.862194 -0.151485
14 2 9.064083 6.908459 9.779922 0.411382 -0.310804 1.193395
15 2 7.650684 7.327848 8.141291 -0.695335 1.202290 1.008995
16 2 9.608162 6.634926 6.144747 -1.692403 0.281005 -0.163759
Energy
-93.765119610000
PlusStress: xx yy zz yz xz xy
0.000507 0.001333 0.000125 -0.000178 -0.000624 0.000015
Feature EFS_by vasp
Feature from database:p.cfg
Feature mindist 2.70
END_CFG

BEGIN_CFG
Size
16
Supercell
17.750000 0.000000 0.000000
0.000000 13.250000 0.000000
0.000000 0.000000 14.500000
AtomData: id type cartes_x cartes_y cartes_z fx fy fz
1 0 10.094363 4.896481 7.755749 2.314241 -0.822999 -0.185317
2 0 9.821641 6.327499 7.571352 -0.998931 1.020316 -1.709930
3 0 8.727461 7.715048 6.030352 0.289272 -0.482073 -0.721497
4 0 7.440644 7.355862 6.628344 -2.647598 1.906845 1.145802
5 0 8.735135 6.872228 8.506978 2.620731 -0.320621 2.474404
6 1 10.871794 4.655304 6.976488 -0.567905 -0.043897 0.325250
7 1 9.243164 4.247877 7.566155 -0.244169 -0.237831 0.468141
8 1 10.674070 4.789058 8.704949 -0.908271 -0.438078 -0.183195
9 1 10.761262 6.891821 7.679448 -0.136697 0.274870 0.526511
10 1 9.155872 8.598494 6.569620 0.104805 -0.363594 -0.211542
11 1 8.679260 7.955054 4.959029 -0.155689 0.008803 -0.043241
12 1 7.046900 6.350922 6.454359 0.002897 0.077857 -0.933324
13 1 6.672516 8.176104 6.454145 0.370798 -0.949610 0.154135
14 2 9.022953 6.909451 9.706115 -0.224535 -0.190758 -0.254819
15 2 7.594323 7.349182 8.104612 -1.312614 0.545061 -1.216971
16 2 9.447276 6.502557 6.154853 1.495800 0.011193 0.383073
Energy
-93.597971270000
PlusStress: xx yy zz yz xz xy
-0.000305 0.000353 0.000321 0.000251 -0.000312 0.000623
Feature EFS_by vasp
Feature from database:p.cfg
Feature mindist 2.70
END_CFG

BEGIN_CFG
Size
16
Supercell
17.750000 0.000000 0.000000
0.000000 13.250000 0.000000
0.000000 0.000000 14.500000
AtomData: id type cartes_x cartes_y cartes_z fx fy fz
1 0 10.081697 4.885556 7.878807 -1.131359 0.934670 0.361611
2 0 9.843708 6.363927 7.559931 1.158158 1.190365 0.925129
3 0 8.729213 7.621818 5.860912 -0.668817 -0.905597 -0.049632
4 0 7.463995 7.780560 6.751557 0.162030 -0.986115 -1.798452
5 0 8.784360 6.861118 8.518089 0.047097 -0.691389 -1.104916
6 1 10.840933 4.506961 7.245651 0.976781 -0.556400 -0.836110
7 1 9.125381 4.304296 7.714249 0.851579 0.463130 0.429538
8 1 10.438939 4.938370 8.904568 -0.111687 -0.752879 0.438485
9 1 10.739269 7.049812 7.716212 -0.166638 -0.879024 0.518595
10 1 9.323120 8.523570 5.807428 0.401959 0.692066 0.047690
11 1 8.386248 7.317969 4.866736 0.048294 0.468088 -0.300296
12 1 6.587469 7.300369 6.297250 0.011699 -0.101942 -0.402491
13 1 7.162239 8.795728 6.904011 0.087911 1.223747 0.212923
14 2 8.900131 6.798905 9.706587 0.282264 0.104702 1.828360
15 2 7.588075 7.130690 7.967662 -0.694180 0.020528 1.671634
16 2 9.544820 6.504934 6.228142 -1.259890 -0.229951 -1.934735
Energy
-93.570433580000
PlusStress: xx yy zz yz xz xy
0.000476 0.000515 -0.002154 0.000522 -0.000505 0.000586
Feature EFS_by vasp
Feature from database:p.cfg
Feature mindist 2.70
END_CFG

BEGIN_CFG
Size
16
Supercell
17.750000 0.000000 0.000000
0.000000 13.250000 0.000000
0.000000 0.000000 14.500000
AtomData: id type cartes_x cartes_y cartes_z fx fy fz
1 0 10.307958 4.944815 7.914966 1.680760 0.586769 -0.971902
2 0 9.769256 6.308383 7.586536 -0.456316 0.362173 -1.091611
3 0 8.889082 7.648202 5.887214 1.578294 0.135917 0.183169
4 0 7.657829 7.941976 6.671701 -1.798785 1.190528 0.190002
5 0 8.713346 6.768960 8.527501 -2.142090 0.618047 -0.166569
6 1 11.205893 4.906062 7.195575 -0.887469 -0.670726 1.180817
7 1 9.581076 4.184824 7.658863 -0.246673 -0.423932 -0.037412
8 1 10.596072 4.898729 8.982646 0.055486 -0.099806 -0.432319
9 1 10.553777 7.072341 7.655721 0.504285 0.146695 0.093563
10 1 9.793794 8.298003 6.132533 -0.927792 -0.043729 -0.340267
11 1 8.622117 7.732543 4.811971 0.441996 -0.154746 0.287868
12 1 6.806385 7.634624 6.033684 -0.088395 -0.354329 0.514133
13 1 7.467662 9.051336 6.821762 0.454945 -0.793979 0.053688
14 2 8.743439 6.689948 9.728035 0.529415 -0.377730 0.893049
15 2 7.532264 7.286537 7.974828 1.076842 0.285417 -0.749200
16 2 9.304703 6.318372 6.195759 0.220739 -0.415748 0.397918
Energy
-93.795450590000
PlusStress: xx yy zz yz xz xy
0.000730 0.000543 0.001352 -0.000258 0.000208 0.000271
Feature EFS_by vasp
Feature from database:p.cfg
Feature mindist 2.70
END_CFG

BEGIN_CFG
Size
16
Supercell
17.750000 0.000000 0.000000
0.000000 13.250000 0.000000
0.000000 0.000000 14.500000
AtomData: id type cartes_x cartes_y cartes_z fx fy fz
1 0 10.381119 4.940312 7.918673 -2.123682 0.965025 1.465897
2 0 9.718576 6.287698 7.612133 -0.242272 0.122961 -0.764401
3 0 8.947645 7.615944 5.847355 -0.926177 0.170740 0.828298
4 0 7.615338 7.867462 6.601741 0.894034 0.193928 -0.317100
5 0 8.563954 6.758670 8.515235 1.433508 -1.552447 1.768160
6 1 11.124486 4.756747 7.189572 0.965699 -0.429644 -0.796517
7 1 9.589308 4.171468 7.965640 0.307918 -0.086004 -0.333352
8 1 10.763428 5.010284 8.944961 0.347650 -0.109401 -0.096737
9 1 10.430015 7.124242 7.775831 0.385491 -0.070782 -0.050558
10 1 9.756315 8.282849 6.153985 0.067453 0.739841 0.157722
11 1 8.838145 7.712890 4.762619 -0.199337 -0.257178 -0.154968
12 1 6.830681 7.213079 6.199888 0.020747 -0.340958 0.247408
13 1 7.236201 8.869837 6.586239 -0.141580 0.984921 -0.622404
14 2 8.543516 6.415818 9.706282 -0.358533 0.559111 -1.257143
15 2 7.768841 7.711061 8.042104 -0.810654 -0.114650 -0.208183
16 2 9.354891 6.314580 6.202011 0.377354 -0.781857 0.129605
Energy
-93.932676080000
PlusStress: xx yy zz yz xz xy
0.000888 0.000040 0.001152 0.000147 -0.000225 0.000095
Feature EFS_by vasp
Feature from database:p.cfg
Feature mindist 2.70
END_CFG

BEGIN_CFG
Size
16
Supercell
17.750000 0.000000 0.000000
0.000000 13.250000 0.000000
0.000000 0.000000 14.500000
AtomData: id type cartes_x cartes_y cartes_z fx fy fz
1 0 10.146706 4.854553 8.021205 0.404388 0.322501 -1.984774
2 0 9.888383 6.311929 7.647376 -1.419074 0.853243 2.210531
3 0 8.767480 7.556372 5.857479 1.970430 -0.246693 -1.692680
4 0 7.546619 7.821273 6.618272 -0.514773 0.325770 1.201270
5 0 8.643162 6.760331 8.482720 0.844271 1.488928 -1.041013
6 1 11.016938 4.673326 7.312405 -0.611252 -0.878636 1.109135
7 1 9.241534 4.267263 7.743606 0.579562 0.061637 -0.092995
8 1 10.300851 4.711931 9.093084 0.515185 0.097670 -0.073766
9 1 10.757690 6.962112 7.996826 -0.592065 -0.307868 -0.344988
10 1 9.428095 8.436711 5.770492 -0.106435 0.270752 0.464438
11 1 8.520220 7.356469 4.796878 0.002437 -0.388420 0.152681
12 1 6.781814 7.004586 6.527243 0.353033 0.483795 0.101034
13 1 7.088917 8.815272 6.303547 0.413726 -0.983401 0.479990
14 2 8.351774 6.255698 9.523638 -0.546444 -0.354822 1.274125