BEGIN_CFG
Size
18
Supercell
15.750000 0.000000 0.000000
0.000000 16.000000 0.000000
0.000000 0.000000 14.250000
AtomData: id type cartes_x cartes_y cartes_z fx fy fz
1 0 9.198633 8.643150 7.884450 -1.187447 -0.191346 -1.199562
2 0 8.577633 8.242150 6.479350 -2.026966 -1.001234 1.215797
3 0 7.963533 6.710950 6.320550 1.338942 2.947289 2.596621
4 0 7.323533 6.503550 7.684450 -0.450507 -1.717267 0.899721
5 0 6.445433 8.747150 7.546450 -1.802590 5.190848 -0.934833
6 0 7.363133 9.173150 6.353650 2.022125 -2.848678 1.178295
7 1 9.809633 9.530150 7.831450 0.354425 0.647138 -0.461687
8 1 8.388633 8.905150 8.607450 0.504764 -0.383750 -0.197496
9 1 9.826633 7.881350 8.263450 0.784499 -1.102443 0.742720
10 1 9.234633 8.312150 5.692350 2.076165 0.663283 -1.872227
11 1 8.773633 6.031350 6.055050 0.266147 -0.449644 0.697767
12 1 7.292833 6.624850 5.512850 -1.271529 0.326738 -1.172024
13 1 6.805033 5.509750 7.718450 -0.021628 0.725018 0.249936
14 1 8.073633 6.530050 8.494450 0.036054 -0.331242 -0.330295
15 1 7.718933 10.204150 6.398350 -0.460096 0.225291 0.617288
16 1 6.821333 9.073150 5.452350 -0.782934 -0.378293 -1.330479
17 2 5.817433 9.862150 7.717450 -0.243999 -4.182682 2.067963
18 2 6.315733 7.515650 8.237450 0.923124 1.847477 -2.791728
Energy
-102.344239120000
PlusStress: xx yy zz yz xz xy
-0.000842 0.003187 0.000873 0.000219 -0.000004 0.000389
Feature EFS_by vasp
Feature from database:p.cfg
Feature mindist 2.70
END_CFG

BEGIN_CFG
Size
18
Supercell
15.750000 0.000000 0.000000
0.000000 16.000000 0.000000
0.000000 0.000000 14.250000
AtomData: id type cartes_x cartes_y cartes_z fx fy fz
1 0 9.557344 8.421302 7.700563 0.701351 0.431332 -0.562518
2 0 8.625744 8.234705 6.485961 -0.846490 -0.339362 -1.136958
3 0 8.113302 6.749708 6.539625 0.617801 -0.457640 -0.058018
4 0 7.116997 6.510326 7.715430 0.692318 1.571370 -0.830418
5 0 6.356521 8.975688 7.474869 1.045723 -2.003836 -0.743070
6 0 7.369639 9.215185 6.345260 0.564296 -0.281285 0.333910
7 1 10.079763 9.396575 7.697346 -0.248733 0.006548 -0.054997
8 1 9.050080 8.338208 8.672762 -0.048871 -0.160032 -0.086368
9 1 10.387998 7.667789 7.626948 -0.629510 0.327651 0.217353
10 1 9.190620 8.385613 5.502509 -0.291444 -0.275889 1.150263
11 1 9.027044 6.137134 6.752818 -0.482229 0.098616 -0.158870
12 1 7.736702 6.344572 5.550651 -0.010839 0.663830 0.820303
13 1 6.426571 5.706009 7.469827 -0.356583 -0.160722 0.031439
14 1 7.594982 6.304356 8.685746 0.221547 -0.206816 -0.229106
15 1 7.716251 10.269730 6.319585 -0.250042 -0.243343 0.273632
16 1 6.850353 9.066460 5.353911 0.341269 -0.156710 0.751259
17 2 5.518185 9.656755 7.976224 -1.104057 2.787658 0.091409
18 2 6.331848 7.717478 8.008707 0.059771 -1.592402 0.201811
Energy
-104.040578680000
PlusStress: xx yy zz yz xz xy
0.001318 0.000771 0.002203 -0.000431 0.000006 0.000302
Feature EFS_by vasp
Feature from database:p.cfg
Feature mindist 2.70
END_CFG

BEGIN_CFG
Size
18
Supercell
15.750000 0.000000 0.000000
0.000000 16.000000 0.000000
0.000000 0.000000 14.250000
AtomData: id type cartes_x cartes_y cartes_z fx fy fz
1 0 9.910988 8.609084 7.466588 -0.688909 -0.611063 -0.214579
2 0 8.723236 8.186001 6.504267 -1.588896 0.057849 1.684292
3 0 7.953500 6.774966 6.549358 0.883468 0.643061 1.098443
4 0 7.005438 6.540836 7.741208 0.805962 -0.208511 0.180548
5 0 6.349555 8.822554 7.601390 -0.662839 1.325765 -0.855380
6 0 7.545873 9.211882 6.685677 0.266648 -1.416083 0.340514
7 1 9.920710 9.708757 7.583861 -0.154484 -0.211438 -0.030285
8 1 9.900320 8.171756 8.486653 -0.283618 0.039991 -0.297299
9 1 10.877561 8.360160 7.036916 0.350888 -0.306816 -0.216929
10 1 9.040239 8.250175 5.484654 0.628186 0.249610 -0.858329
11 1 8.654950 5.930464 6.576159 0.151491 -0.068718 -0.158666
12 1 7.386358 6.716633 5.628268 -0.253913 -0.075661 -0.531123
13 1 6.467469 5.563533 7.638882 0.286675 0.621685 0.099958
14 1 7.584604 6.561371 8.680850 0.152058 -0.514930 -0.041822
15 1 7.907327 10.202333 6.964942 -0.096771 0.147006 0.309535
16 1 7.029418 9.356553 5.737737 -0.161552 0.000892 -0.473957
17 2 5.540157 9.718603 7.797947 -0.022270 -0.202756 0.588358
18 2 6.003566 7.551468 7.960024 0.369111 0.538124 -0.620082
Energy
-104.026936150000
PlusStress: xx yy zz yz xz xy
0.001341 0.001374 0.000683 -0.000014 0.000001 0.001371
Feature EFS_by vasp
Feature from database:p.cfg
Feature mindist 2.70
END_CFG

BEGIN_CFG
Size
18
Supercell
15.750000 0.000000 0.000000
0.000000 16.000000 0.000000
0.000000 0.000000 14.250000
AtomData: id type cartes_x cartes_y cartes_z fx fy fz
1 0 9.848241 8.264976 7.339560 0.358651 -0.044503 0.277157
2 0 8.614168 8.257509 6.430428 -0.419622 -0.711009 -0.332979
3 0 8.098767 6.780855 6.566290 -0.231871 0.411946 0.280013
4 0 7.229808 6.716900 7.808725 -0.764985 -0.139238 0.040616
5 0 6.271090 8.870805 7.623888 -1.029072 1.494804 -1.104926
6 0 7.541864 9.302487 6.873092 0.408521 0.330910 -0.053722
7 1 10.506193 9.130464 7.267841 0.094424 0.351953 -0.213283
8 1 9.541399 8.212965 8.398877 -0.167789 0.171403 -0.032526
9 1 10.458025 7.345817 7.225822 0.063818 0.402986 -0.345831
10 1 8.798062 8.466055 5.339460 0.449735 -0.167853 0.839302
11 1 8.998035 6.209638 6.882141 -0.442249 -0.350597 -0.692951
12 1 7.612123 6.333251 5.658300 0.273536 0.380129 0.638210
13 1 6.790882 5.742753 7.969397 -0.015160 -0.671788 0.034872
14 1 7.798274 6.969462 8.719190 0.005965 0.087216 -0.092224
15 1 8.039776 10.099472 7.476375 -0.320436 -0.269242 -0.244107
16 1 7.151028 9.822909 5.961986 0.061280 -0.214161 0.569388
17 2 5.382721 9.703219 7.834013 0.818600 -0.793739 0.228356
18 2 6.016611 7.561220 7.786245 0.835388 -0.267947 0.206247
Energy
-104.116158990000
PlusStress: xx yy zz yz xz xy
0.001065 0.000493 0.001641 0.000014 0.000258 -0.000495
Feature EFS_by vasp
Feature from database:p.cfg
Feature mindist 2.70
END_CFG

BEGIN_CFG
Size
18
Supercell
15.750000 0.000000 0.000000
0.000000 16.000000 0.000000
0.000000 0.000000 14.250000
AtomData: id type cartes_x cartes_y cartes_z fx fy fz
1 0 9.967879 8.302856 7.298049 -0.407773 0.248890 -0.687171
2 0 8.603752 8.265682 6.505997 0.337817 -0.846551 1.403631
3 0 7.829250 6.929813 6.530010 1.199422 -0.927239 0.287405
4 0 7.206512 6.519306 7.880345 -0.186952 1.549975 -1.015111
5 0 6.291470 8.898058 7.539857 1.225034 -2.413072 0.222340
6 0 7.617148 9.315669 6.993512 0.172253 0.483785 0.629864
7 1 10.360424 9.344596 7.239667 0.011043 -0.460459 0.056045
8 1 9.904766 8.033908 8.368530 -0.357963 0.083460 -0.160611
9 1 10.716314 7.616067 6.860457 -0.149505 0.170552 -0.077482
10 1 8.771041 8.485996 5.458404 0.490442 -0.022008 -0.493849
11 1 8.396822 6.115562 6.061335 0.133089 -0.053746 -0.082814
12 1 6.956335 7.171242 5.945771 -0.490373 -0.562473 -0.884928
13 1 6.672220 5.534728 7.886795 0.328020 0.653455 -0.181074
14 1 7.887278 6.558525 8.773770 -0.474154 0.260822 -0.492601
15 1 8.044637 9.913397 7.804219 0.230261 0.258956 0.180070
16 1 7.330100 10.034824 6.238070 0.138154 0.446656 -0.538861
17 2 5.381625 9.662639 7.647480 -1.527627 0.698361 0.327450
18 2 6.124577 7.543632 7.909762 -0.684079 0.429983 1.506443
Energy
-103.924455520000
PlusStress: xx yy zz yz xz xy
0.000168 0.001388 0.000471 -0.000941 0.000904 0.000298
Feature EFS_by vasp
Feature from database:p.cfg
Feature mindist 2.70
END_CFG

BEGIN_CFG
Size
18
Supercell
15.750000 0.000000 0.000000
0.000000 16.000000 0.000000
0.000000 0.000000 14.250000
AtomData: id type cartes_x cartes_y cartes_z fx fy fz
1 0 9.969578 8.179192 7.176112 -0.051714 0.277672 0.216640
2 0 8.613723 8.257916 6.448251 0.041885 0.892316 0.503199
3 0 8.027947 6.861829 6.490728 -1.903886 0.246309 -1.464956
4 0 7.159494 6.614175 7.709476 -0.394062 -0.312560 0.261550
5 0 6.203222 8.925460 7.517647 -1.612344 0.820314 1.166616
6 0 7.648709 9.318938 7.190162 -0.057897 0.394544 -0.549406
7 1 10.443600 9.135708 7.396186 -0.009826 0.499231 -0.116898
8 1 9.822809 7.706785 8.172931 0.037805 -0.025093 -0.353274
9 1 10.710949 7.600224 6.614291 -0.039715 -0.227410 -0.090545
10 1 8.676575 8.586299 5.378938 0.347699 -0.133286 0.644726
11 1 8.755164 6.033094 6.315873 -0.218329 0.476828 0.359528
12 1 7.310695 6.809574 5.612400 0.508959 -0.156005 0.535371
13 1 6.481342 5.802438 7.465687 -0.214627 -0.558757 -0.006409
14 1 7.711871 6.288985 8.588853 0.343012 0.184221 0.420530
15 1 8.038322 9.421056 8.228575 0.057163 0.238449 -0.335922
16 1 7.641427 10.338279 6.703602 0.191558 -0.906765 0.334821
17 2 5.166926 9.669365 7.575901 3.532638 -2.669952 -0.368734
18 2 6.224656 7.660261 8.153015 -0.570639 0.963548 -1.147314
Energy
-103.839311170000
PlusStress: xx yy zz yz xz xy
0.002386 0.001791 0.001435 -0.000056 -0.000166 -0.002076
Feature EFS_by vasp
Feature from database:p.cfg
Feature mindist 2.70
END_CFG

BEGIN_CFG
Size
18
Supercell
15.750000 0.000000 0.000000
0.000000 16.000000 0.000000
0.000000 0.000000 14.250000
AtomData: id type cartes_x cartes_y cartes_z fx fy fz
1 0 9.974557 8.203793 7.097844 1.765728 0.134699 -0.076744
2 0 8.613536 8.296669 6.486627 -0.746890 0.335624 -0.336086
3 0 7.821218 7.010907 6.445887 0.966338 -1.891503 0.199506
4 0 7.267212 6.668637 7.839245 -1.312599 0.919148 0.177346
5 0 6.232463 8.853402 7.694272 2.429386 -1.958873 -1.552339
6 0 7.755686 9.238540 7.291300 -1.713137 0.642230 1.874590
7 1 10.526720 9.176680 7.055751 -0.547679 -0.210872 0.030281
8 1 9.911395 7.961574 8.164387 0.178431 -0.342754 0.123473
9 1 10.683243 7.521670 6.564065 -0.562185 -0.054334 0.352265
10 1 8.742513 8.744615 5.489043 -0.214547 -0.292979 -0.198586
11 1 8.467992 6.213780 6.038707 0.180927 -0.289947 0.413284
12 1 7.001973 6.959232 5.734415 -0.537232 0.578420 -0.186804
13 1 6.943041 5.620342 8.019545 0.072405 0.521934 -0.299485
14 1 7.913514 6.996835 8.689313 -0.163038 -0.270482 -0.503557
15 1 8.228593 9.556568 8.245461 0.025062 -0.083690 -0.246603
16 1 7.532215 10.128470 6.746611 0.066822 1.049819 -0.415175
17 2 5.382141 9.665439 7.492087 -1.623112 0.792844 0.625420
18 2 5.955510 7.505946 7.977635 1.708170 0.428891 0.027074
Energy
-103.854144870000
PlusStress: xx yy zz yz xz xy
0.001128 0.000189 0.001052 -0.000160 -0.000589 0.000819
Feature EFS_by vasp
Feature from database:p.cfg
Feature mindist 2.70
END_CFG

BEGIN_CFG
Size
18
Supercell
15.750000 0.000000 0.000000
0.000000 16.000000 0.000000
0.000000 0.000000 14.250000
AtomData: id type cartes_x cartes_y cartes_z fx fy fz
1 0 9.979164 8.252848 6.926251 0.298579 -0.775777 0.798490
2 0 8.513317 8.215495 6.528215 0.891613 2.504324 0.085843
3 0 7.986080 6.824411 6.572027 -1.295895 -0.992602 -0.748612
4 0 7.084681 6.625060 7.767012 1.099743 -0.663259 0.505225
5 0 6.297598 8.979557 7.698369 -1.288602 -0.447091 -1.368285
6 0 7.780863 9.350649 7.469233 -1.009343 -1.235201 -1.371815
7 1 10.437274 9.225345 7.056314 -0.127182 0.689834 0.089601
8 1 10.145408 7.676975 7.867087 -0.116169 0.298724 -0.179885
9 1 10.583979 7.755860 6.189490 0.461196 -0.511410 -0.691048
10 1 8.461532 8.607010 5.489420 -0.189681 -0.054799 0.300805
11 1 8.728759 6.005032 6.471223 0.197596 0.476621 0.443369
12 1 7.341444 6.614259 5.687418 0.025741 0.313965 0.174625
13 1 6.642149 5.624627 7.709710 -0.421381 -0.019262 0.103211
14 1 7.604038 6.677109 8.725775 0.641829 -0.172246 0.308022
15 1 8.293296 9.362920 8.423090 0.266755 0.081699 0.502988
16 1 7.873265 10.344415 6.957313 -0.196380 -0.647440 0.545083
17 2 5.277111 9.675830 7.573044 2.165414 -0.836386 0.635916
18 2 6.067787 7.575158 7.827809 -1.412865 1.987371 -0.127084
Energy
-104.051388810000
PlusStress: xx yy zz yz xz xy
0.000580 0.001641 0.000698 0.000282 -0.000155 -0.000265
Feature EFS_by vasp
Feature from database:p.cfg
Feature mindist 2.70
END_CFG

BEGIN_CFG
Size
18
Supercell
15.750000 0.000000 0.000000
0.000000 16.000000 0.000000
0.000000 0.000000 14.250000
AtomData: id type cartes_x cartes_y cartes_z fx fy fz
1 0 10.125284 8.443709 6.678281 0.053297 0.333765 0.144096
2 0 8.577565 8.216091 6.521139 0.604886 0.496246 0.261621
3 0 8.068043 6.774677 6.724357 -0.435001 -0.641449 0.069413
4 0 6.978819 6.646913 7.828389 -0.712811 -0.138823 -0.022015
5 0 6.257170 8.890395 7.621667 -1.044095 1.511814 0.292520
6 0 7.770855 9.071714 7.590684 0.853427 -0.299412 0.248336
7 1 10.324612 9.532322 6.501034 0.029501 -0.605979 -0.088060
8 1 10.470714 8.261420 7.705172 -0.136999 -0.112213 0.242974
9 1 10.836610 7.835093 6.037756 -1.073718 0.450231 0.187303
10 1 8.399501 8.576730 5.477534 -0.493718 -0.261784 0.554640
11 1 8.842271 5.977644 6.920981 -0.273248 0.806568 0.053737
12 1 7.590199 6.442276 5.792145 -0.091561 -0.063562 -0.072811
13 1 6.471931 5.674484 7.718078 0.124080 0.089928 0.128555
14 1 7.332066 6.737263 8.891958 -0.033088 -0.011239 -0.767538
15 1 8.172229 8.675100 8.583800 -0.439069 0.622818 -0.749818
16 1 7.975228 10.145910 7.552852 0.098885 0.067682 -0.109063
17 2 5.397725 9.784085 7.680907 1.409027 -0.642959 -0.304835
18 2 5.826040 7.622640 7.679608 1.525958 -1.586365 -0.069862
Energy
-104.195487640000
PlusStress: xx yy zz yz xz xy
0.002978 0.000800 0.001674 -0.000053 -0.000651 -0.001026
Feature EFS_by vasp
Feature from database:p.cfg
Feature mindist 2.70
END_CFG

BEGIN_CFG
Size
18
Supercell
15.750000 0.000000 0.000000
0.000000 16.000000 0.000000
0.000000 0.000000 14.250000
AtomData: id type cartes_x cartes_y cartes_z fx fy fz
1 0 9.917782 8.490335 6.470635 0.039261 -0.214429 1.746381
2 0 8.408347 8.301804 6.662615 1.609820 -2.062233 -0.278376
3 0 8.147765 6.759027 6.900073 -1.281839 0.555189 -0.253012
4 0 6.856887 6.501364 7.784315 0.383552 0.697610 -1.910982
5 0 6.303472 8.912456 7.719610 3.004296 -2.257211 -0.464821
6 0 7.827226 9.050992 7.777362 -1.159932 1.840927 0.342328
7 1 10.237217 9.467333 6.132347 -0.024995 0.506694 -0.255690
8 1 10.420107 8.289068 7.441162 -0.059365 0.308276 -0.015083
9 1 10.339059 7.720635 5.858973 0.215312 -0.552705 -1.060190
10 1 7.973771 8.661708 5.741475 -0.697133 -0.147198 -0.593034
11 1 9.043338 6.294075 7.311331 0.167563 -0.253816 0.080118
12 1 7.898054 6.358438 5.903474 0.368148 -0.375320 0.173265
13 1 6.269064 5.676202 7.360016 0.351512 -0.383097 0.267211
14 1 6.981875 6.328619 8.861725 0.155276 0.404054 0.072696
15 1 8.209858 8.811376 8.749829 0.496433 -0.473944 0.845377
16 1 8.017551 10.117179 7.615187 -0.000601 0.301097 0.263461
17 2 5.579447 9.847303 7.660477 -2.256016 1.185705 0.035676
18 2 5.945820 7.588432 7.450089 -1.327690 0.924970 1.010432
Energy
-103.999447850000
PlusStress: xx yy zz yz xz xy
-0.000163 0.000173 0.000157 -0.000871 -0.000186 0.000800
Feature EFS_by vasp
Feature from database:p.cfg
Feature mindist 2.70
END_CFG

BEGIN_CFG
Size
18
Supercell
15.750000 0.000000 0.000000
0.000000 16.000000 0.000000
0.000000 0.000000 14.250000
AtomData: id type cartes_x cartes_y cartes_z fx fy fz
1 0 10.003501 8.525120 6.304985 -0.475100 -0.106266 -0.649528
2 0 8.507726 8.165081 6.688742 -0.083709 1.140023 -0.362110
3 0 8.230870 6.710780 7.111608 0.945891 0.185535 -0.519565
4 0 6.797388 6.468797 7.552334 -0.988645 0.395851 0.483344
5 0 6.310384 8.962472 7.730143 -1.672955 0.920668 -0.832299
6 0 7.815740 9.075472 7.812697 0.717447 -0.343660 0.605216
7 1 10.185249 9.621528 6.396650 -0.113651 -0.490565 0.068993
8 1 10.794913 7.979680 6.839180 -0.177042 0.041283 0.356450
9 1 10.172996 8.276906 5.208445 -0.228929 0.180337 0.969371
10 1 8.011581 8.334823 5.680740 -0.184407 0.016560 1.128301
11 1 8.981340 6.389765 7.910851 -0.767350 0.195669 -0.951526
12 1 8.321409 6.142716 6.172640 0.652166 -0.453983 0.316112
13 1 6.240155 5.804527 6.879525 0.268852 -0.193540 -0.081148
14 1 6.767700 5.992618 8.553571 -0.143698 0.360747 -0.064849
15 1 8.079740 8.598106 8.814207 0.005709 0.466675 -0.755818
16 1 8.128987 10.151231 7.895471 -0.227267 -0.752573 -0.422550
17 2 5.479549 9.914632 7.707163 2.181735 -2.847487 0.223377
18 2 5.874093 7.629416 7.528072 0.276911 1.292538 0.501015
Energy
-103.922736730000
PlusStress: xx yy zz yz xz xy
0.002134 0.002842 0.002153 -0.000073 -0.000025 -0.000568
Feature EFS_by vasp
Feature from database:p.cfg
Feature mindist 2.70
END_CFG

BEGIN_CFG
Size
18
Supercell
15.750000 0.000000 0.000000
0.000000 16.000000 0.000000
0.000000 0.000000 14.250000
AtomData: id type cartes_x cartes_y cartes_z fx fy fz
1 0 9.979898 8.484411 6.379985 -0.292201 0.250969 1.237467
2 0 8.484829 8.158180 6.565785 0.407941 0.217720 0.828666
3 0 8.236885 6.753194 7.160482 -1.223421 0.531368 -1.183226
4 0 6.724224 6.487820 7.409078 -0.033544 0.367816 -0.288433
5 0 6.334744 8.920110 7.752519 0.663186 0.033283 -0.315068
6 0 7.848478 9.120305 7.644702 -0.643870 -0.950663 -0.782947
7 1 10.124241 9.515125 6.041747 -0.095809 0.194604 -0.102777
8 1 10.420060 8.429278 7.395617 0.291517 -0.005743 -0.228444
9 1 10.563559 7.846157 5.722004 -0.110618 -0.476213 -0.283474
10 1 8.017608 8.252158 5.593970 -0.651040 0.173584 -0.420827
11 1 8.738912 6.777985 8.093204 0.757183 -0.344897 1.287781
12 1 8.650110 5.943122 6.543313 -0.001457 -0.003773 -0.028808
13 1 6.201645 5.981628 6.588354 0.394489 -0.227354 -0.244984
14 1 6.574342 5.865904 8.302284 0.001756 0.094426 0.154343
15 1 8.309739 8.916220 8.610673 0.202282 -0.237130 0.386546
16 1 7.946065 10.180617 7.503417 0.377250 0.757455 -0.520693
17 2 5.546086 9.832047 7.902132 -0.175157 0.238072 0.202166
18 2 5.858621 7.673748 7.546563 0.129648 -0.604097 0.300014
Energy
-104.411288860000
PlusStress: xx yy zz yz xz xy
0.001108 0.000336 0.000379 0.000182 -0.000629 -0.000003
Feature EFS_by vasp
Feature from database:p.cfg
Feature mindist 2.70
END_CFG

BEGIN_CFG
Size
18
Supercell
15.750000 0.000000 0.000000
0.000000 16.000000 0.000000
0.000000 0.000000 14.250000
AtomData: id type cartes_x cartes_y cartes_z fx fy fz
1 0 10.041688 8.371642 6.474643 -0.325516 -0.486159 -0.014919
2 0 8.479788 8.142464 6.568437 1.795503 -0.283549 -0.352493
3 0 8.195185 6.778957 7.238840 0.089552 0.663953 0.914885
4 0 6.696435 6.578536 7.115712 -0.113165 -0.461321 0.210993
5 0 6.366953 8.943159 7.837203 0.013539 -1.333596 -1.581170
6 0 7.815376 9.230408 7.390850 -0.804972 1.639370 -0.510052
7 1 10.447140 9.057171 5.696721 -0.607892 -0.248034 0.087563
8 1 10.410892 8.777493 7.429869 0.046775 -0.223375 0.079376
9 1 10.482459 7.359755 6.312986 0.139525 0.580257 0.025061
10 1 8.069014 8.172556 5.527544 0.059063 -0.203362 0.488987
11 1 8.523209 6.930452 8.344579 -0.521810 -0.621037 -1.356799
12 1 8.720873 5.881922 6.818863 -0.140963 0.715850 0.097572
13 1 6.392638 6.521364 6.046645 0.204304 -0.036557 0.176292
14 1 6.343538 5.656321 7.604425 0.062395 0.004205 0.015869
15 1 8.423110 9.655123 8.224171 -0.203552 -0.616056 -0.092400
16 1 7.700916 10.132339 6.710615 -0.025343 -0.572378 0.626280
17 2 5.510081 9.758253 8.064664 0.004057 0.959924 0.793123
18 2 5.906891 7.629329 7.704263 0.319666 0.523042 0.410793
Energy
-104.220695280000
PlusStress: xx yy zz yz xz xy
0.001299 0.001181 0.001547 -0.000035 0.000311 0.000474
Feature EFS_by vasp
Feature from database:p.cfg
Feature mindist 2.70
END_CFG

BEGIN_CFG
Size
18
Supercell
15.750000 0.000000 0.000000
0.000000 16.000000 0.000000
0.000000 0.000000 14.250000
AtomData: id type cartes_x cartes_y cartes_z fx fy fz
1 0 10.071484 8.419362 6.694953 -0.196433 0.618050 0.419088
2 0 8.598375 8.060044 6.545640 -0.046062 -0.138753 -0.411876
3 0 8.191230 6.762446 7.193838 -1.270413 -0.443384 -0.997536
4 0 6.664729 6.613632 7.079805 -0.415108 -0.095044 0.459716
5 0 6.331178 8.903636 7.759923 -1.163333 1.527318 0.424302
6 0 7.648953 9.181552 7.015712 0.165809 0.267293 0.910303
7 1 10.136784 9.490106 6.494320 0.364903 0.328588 -0.291057
8 1 10.473112 8.308373 7.713255 -0.074287 -0.280195 0.048751
9 1 10.692390 7.890526 5.972019 0.234040 -0.198832 -0.017933
10 1 8.500654 7.899548 5.453296 -0.475397 0.188412 0.098276
11 1 8.560710 6.644960 8.186854 0.208215 0.049591 1.248782
12 1 8.579451 5.913656 6.618952 0.243430 -0.206360 -0.064912
13 1 6.389731 6.650782 6.008434 -0.084670 -0.001243 0.145320
14 1 6.267559 5.681745 7.518978 0.265023 0.061993 -0.176133
15 1 8.185109 9.865070 7.693372 0.060970 -0.065402 0.176537
16 1 7.384173 9.846320 6.206989 -0.268137 0.316725 -0.672318
17 2 5.665522 9.825395 8.286418 1.372588 -1.752579 -0.917108
18 2 5.840126 7.637718 7.787723 1.054619 -0.158166 -0.367601
Energy
-104.379660770000
PlusStress: xx yy zz yz xz xy
0.001456 0.000464 0.000495 0.000523 -0.000661 -0.000589
Feature EFS_by vasp
Feature from database:p.cfg
Feature mindist 2.70
END_CFG

BEGIN_CFG
Size
18
Supercell
15.750000 0.000000 0.000000
0.000000 16.000000 0.000000
0.000000 0.000000 14.250000
AtomData: id type cartes_x cartes_y cartes_z fx fy fz
1 0 9.955357 8.402241 6.942860 -0.415010 0.038327 0.575109
2 0 8.511078 8.112818 6.469652 1.346108 0.216211 -0.174788
3 0 8.131750 6.779515 7.066467 0.703963 -0.418500 2.168815
4 0 6.658622 6.601980 7.122779 -0.852350 -0.955302 -0.133720
5 0 6.329072 8.930874 7.666842 2.211553 -2.081649 -1.328395
6 0 7.554390 9.297708 6.773530 -0.576469 -0.280615 -0.268917
7 1 10.391767 9.372388 6.627394 -0.101170 -0.450828 -0.188690
8 1 9.888773 8.415874 8.053263 0.229979 0.187444 -0.214497
9 1 10.588240 7.529226 6.706317 0.194220 0.368032 -0.198744
10 1 8.530841 7.871003 5.410756 -0.048975 0.537086 -0.753819
11 1 8.589317 6.648686 8.127192 -0.756331 0.401454 -1.113796
12 1 8.557098 5.893312 6.542801 -0.095586 0.515125 -0.201341
13 1 6.236239 6.502473 6.110988 -0.027195 -0.287665 -0.120155
14 1 6.456098 5.714649 7.732611 -0.331496 -0.342469 -0.309376
15 1 8.033676 10.108347 7.367517 0.012193 -0.480192 -0.199226
16 1 7.236991 9.823393 5.825641 -0.019981 -0.596334 0.656596
17 2 5.925762 9.731512 8.430108 -1.961865 2.377193 1.922663
18 2 5.895686 7.612611 7.790133 0.475545 1.263348 -0.101222
Energy
-104.054042060000
PlusStress: xx yy zz yz xz xy
0.000306 0.000651 0.000414 -0.000866 0.000636 0.000043
Feature EFS_by vasp
Feature from database:p.cfg
Feature mindist 2.70
END_CFG

BEGIN_CFG
Size
18
Supercell
15.750000 0.000000 0.000000
0.000000 16.000000 0.000000
0.000000 0.000000 14.250000
AtomData: id type cartes_x cartes_y cartes_z fx fy fz
1 0 9.954406 8.583776 7.010210 -0.328521 -0.397708 0.384039
2 0 8.596298 8.041851 6.543222 -0.110964 -0.886941 -0.527915
3 0 8.036226 6.701322 7.130776 -0.093254 -0.522453 -0.741254
4 0 6.497983 6.713032 6.902298 1.034362 0.324531 -0.074410
5 0 6.459451 8.922275 7.714396 -0.779440 0.297587 2.593938
6 0 7.448644 9.100093 6.641039 0.263954 0.058771 -1.155038
7 1 10.369837 9.152369 6.173805 0.276611 0.183057 0.040031
8 1 9.820419 9.260193 7.862063 0.138784 0.041738 0.169062
9 1 10.670236 7.788572 7.301456 -0.209505 0.167822 -0.163512
10 1 8.763625 7.754983 5.459455 -0.429259 0.595079 0.635896
11 1 8.284684 6.508351 8.168610 -0.102180 0.268230 0.682160
12 1 8.478902 5.844465 6.598584 0.070639 0.052404 -0.183314
13 1 6.374511 7.115042 5.873324 -0.439978 -0.538141 0.063673
14 1 5.885891 5.809126 7.050628 0.525897 -0.079762 -0.032678
15 1 7.722096 10.143014 6.562878 0.539858 0.433901 0.174065
16 1 6.868380 8.909801 5.737727 -0.358435 0.223257 -0.507336
17 2 6.028957 9.701273 8.568227 0.717004 0.435117 -1.072121
18 2 5.982442 7.664573 7.834471 -0.721257 -0.651210 -0.263862
Energy
-104.082177910000
PlusStress: xx yy zz yz xz xy
0.001079 -0.000093 0.000404 -0.000071 -0.000224 -0.000082
Feature EFS_by vasp
Feature from database:p.cfg
Feature mindist 2.70
END_CFG

BEGIN_CFG
Size
18
Supercell
15.750000 0.000000 0.000000
0.000000 16.000000 0.000000
0.000000 0.000000 14.250000
AtomData: id type cartes_x cartes_y cartes_z fx fy fz
1 0 9.759040 8.537225 7.245162 -0.637598 0.046188 -0.757274
2 0 8.499151 8.143891 6.389410 1.287690 -2.034349 1.653528
3 0 8.034996 6.748000 6.992974 -0.495947 0.415215 0.281016
4 0 6.517915 6.639187 7.043056 0.128449 -1.297571 -0.134175
5 0 6.631995 8.867679 7.741676 -3.411007 1.514125 0.615941
6 0 7.387957 9.132261 6.491071 0.984072 1.547815 0.481259
7 1 10.149349 9.536093 6.978633 -0.175152 -0.028216 0.203286
8 1 9.545332 8.448629 8.332680 0.173937 0.225658 -0.423843
9 1 10.528786 7.821899 6.952562 0.368820 -0.221816 0.296242
10 1 8.824163 8.013686 5.380375 0.265129 -0.124999 -1.081128
11 1 8.304009 6.709677 8.085599 0.223647 0.044696 -0.700183
12 1 8.421606 5.824708 6.529060 0.267619 0.347563 -0.158047
13 1 6.012145 6.525774 6.074876 0.053886 0.177685 -0.334941
14 1 6.254842 5.760686 7.639443 -0.067842 -0.445734 -0.123906
15 1 7.909280 10.120796 6.633875 -0.888281 -0.340009 -0.403103
16 1 6.678449 9.167126 5.629891 0.331889 -0.114798 0.413830
17 2 6.224711 9.688324 8.558476 1.238799 0.375920 -0.036112
18 2 5.946430 7.695399 7.782665 0.343150 -0.081286 0.229047
Energy
-103.975947170000
PlusStress: xx yy zz yz xz xy
0.000326 -0.000444 0.000853 -0.000694 0.000590 0.000601
Feature EFS_by vasp
Feature from database:p.cfg
Feature mindist 2.70
END_CFG

BEGIN_CFG
Size
18
Supercell
15.750000 0.000000 0.000000
0.000000 16.000000 0.000000
0.000000 0.000000 14.250000
AtomData: id type cartes_x cartes_y cartes_z fx fy fz
1 0 9.713112 8.534790 7.345158 -0.179384 0.366908 -1.117507
2 0 8.540225 8.083165 6.462997 0.349519 0.219985 -1.006938
3 0 8.014698 6.689077 6.790755 -0.766803 -1.360671 -0.148551
4 0 6.508920 6.656716 6.984884 -1.147668 0.366917 -1.147983
5 0 6.567666 8.906279 7.797051 0.197085 -1.793107 -3.216493
6 0 7.327624 9.115363 6.516824 0.866927 -2.547151 0.052994
7 1 9.898155 9.542740 6.943576 0.487618 0.198381 0.518508
8 1 9.383218 8.598070 8.382078 0.204723 0.022336 0.362098
9 1 10.655228 7.948370 7.226768 -0.632509 0.065286 0.152868
10 1 8.895920 8.010711 5.379152 -0.247894 0.452936 1.050366
11 1 8.467752 6.175944 7.661440 0.291502 0.345409 -0.212783
12 1 8.139121 6.051167 5.887980 0.355985 -0.130417 0.472703
13 1 6.024284 6.903580 5.996485 0.207997 -0.056550 0.424025
14 1 6.037632 5.677737 7.227977 0.563301 0.364194 0.419876
15 1 7.599734 10.146686 6.438574 0.293230 0.738987 -0.261014
16 1 6.677351 8.751717 5.706404 -0.121995 0.608805 -0.178953
17 2 6.312944 9.817087 8.495214 -1.061665 2.120747 3.091194
18 2 6.030509 7.636481 7.936850 0.330691 0.019322 0.756463
Energy
-104.103094740000
PlusStress: xx yy zz yz xz xy
0.000748 0.000047 0.000370 -0.000577 0.000391 -0.000076
Feature EFS_by vasp
Feature from database:p.cfg
Feature mindist 2.70
END_CFG

BEGIN_CFG
Size
18
Supercell
15.750000 0.000000 0.000000
0.000000 16.000000 0.000000
0.000000 0.000000 14.250000
AtomData: id type cartes_x cartes_y cartes_z fx fy fz
1 0 9.582975 8.453136 7.382916 -0.485322 -1.149744 0.428400
2 0 8.454699 8.083298 6.412085 0.596274 0.441926 0.559753
3 0 7.982008 6.614636 6.673129 -0.996323 0.466000 -0.187956
4 0 6.514854 6.656013 6.990528 0.001624 0.991330 -0.041723
5 0 6.554509 8.963582 7.731873 -0.085077 1.858226 1.813578
6 0 7.382996 9.189717 6.487923 -0.469955 -1.063328 0.098957
7 1 10.325207 9.196683 7.083183 -0.182405 0.230353 -0.196383
8 1 9.140160 8.686512 8.382928 0.432039 -0.012206 -0.422042
9 1 10.038250 7.467384 7.437320 1.120360 0.010298 0.679603
10 1 8.833663 8.061450 5.405413 0.442745 0.268994 -0.763799
11 1 8.471944 6.085234 7.485609 0.616863 0.067084 0.215352
12 1 8.073834 6.053751 5.748227 0.370210 -0.471093 -0.293160
13 1 5.988812 6.956624 6.089946 -0.506134 0.418224 -0.416215
14 1 6.006311 5.747560 7.294998 0.184490 -0.414882 0.576992
15 1 7.879211 10.186459 6.484876 -0.688541 -0.411846 -0.199299
16 1 6.690911 8.975686 5.659112 -0.049653 0.775775 -0.355348
17 2 6.185383 9.838510 8.546526 0.632090 -1.508600 -1.571057
18 2 6.328991 7.658166 8.036276 -0.942720 -0.496768 0.091192
Energy
-104.010394720000
PlusStress: xx yy zz yz xz xy
-0.000444 0.001493 0.000313 0.000763 -0.000302 0.000506
Feature EFS_by vasp
Feature from database:p.cfg
Feature mindist 2.70
END_CFG

BEGIN_CFG
Size
18
Supercell
15.750000 0.000000 0.000000
0.000000 16.000000 0.000000
0.000000 0.000000 14.250000
AtomData: id type cartes_x cartes_y cartes_z fx fy fz
1 0 9.703380 8.335744 7.440024 -0.746152 1.172332 -0.881106
2 0 8.544643 8.143752 6.431170 0.361160 -0.389969 -1.022534
3 0 7.921924 6.737341 6.450135 -1.073933 -1.682569 -0.540686
4 0 6.445279 6.614638 7.161965 0.973955 0.273514 -0.565379
5 0 6.576351 8.935254 7.730018 -1.143687 0.280881 0.133017
6 0 7.382952 9.138128 6.446694 0.048891 0.078506 1.683060
7 1 9.783059 9.439892 7.531781 0.510711 -0.267464 0.203282
8 1 9.500174 7.939060 8.426203 0.011550 -0.349101 0.427519
9 1 10.626584 7.931864 6.981364 -0.212191 0.025665 0.457176
10 1 9.017436 8.430908 5.447609 -0.174671 -0.955757 0.369247
11 1 8.537882 5.929663 6.932014 -0.018095 0.803261 -0.357788
12 1 7.766613 6.409727 5.364947 0.072983 0.149151 1.151829
13 1 5.687692 6.636558 6.330476 0.219439 0.104506 0.757866
14 1 6.313445 5.674038 7.764322 0.266913 0.656516 -0.609062
15 1 7.815938 10.123136 6.654494 -0.230863 0.403696 -0.633647
16 1 6.773004 9.108133 5.509562 0.291961 0.003265 0.613413
17 2 6.226390 9.830772 8.472053 0.293426 0.931499 0.113173
18 2 6.187703 7.694735 8.132650 0.543525 -1.228817 -1.293330
Energy
-103.928832520000
PlusStress: xx yy zz yz xz xy
0.001711 0.000336 0.002115 -0.000782 -0.000159 0.000372
Feature EFS_by vasp
Feature from database:p.cfg
Feature mindist 2.70
END_CFG

BEGIN_CFG
Size
18
Supercell
15.750000 0.000000 0.000000
0.000000 16.000000 0.000000
0.000000 0.000000 14.250000
AtomData: id type cartes_x cartes_y cartes_z fx fy fz
1 0 9.501801 8.257984 7.513528 -0.649117 -0.287887 -1.102173
2 0 8.473408 8.086055 6.285113 0.845073 0.091614 1.136455
3 0 7.890494 6.628431 6.367163 1.135999 1.898729 1.713944
4 0 6.578818 6.759403 7.080759 -1.372636 -1.159322 0.172930
5 0 6.586085 8.990301 7.792364 0.897909 -0.918457 -0.526440
6 0 7.363192 9.157232 6.437677 -1.173777 0.277241 0.853704
7 1 9.672446 9.320850 7.704210 0.118415 0.170461 0.075637
8 1 9.128745 7.779900 8.442969 0.047324 0.173075 -0.353543
9 1 10.455383 7.790973 7.219830 -0.038217 -0.006443 0.191204
10 1 9.048232 8.265251 5.367742 -0.075211 0.005669 -0.134771
11 1 8.513116 6.037677 7.031954 0.766478 -0.172300 0.098341
12 1 7.807729 6.033560 5.475474 -0.384150 0.029969 -0.909987
13 1 5.863655 6.991705 6.282406 -0.724012 -0.197694 0.341655
14 1 6.409259 5.821030 7.601390 -0.746765 -0.506812 -0.316034
15 1 7.639767 10.240284 6.412531 0.481106 -0.728150 0.096221
16 1 6.555944 9.123088 5.683262 0.176196 -0.387540 -0.305807
17 2 6.240760 9.870844 8.526277 -0.349626 1.360787 0.567540