BEGIN_CFG
Size
18
Supercell
17.500000 0.000000 0.000000
0.000000 15.750000 0.000000
0.000000 0.000000 14.000000
AtomData: id type cartes_x cartes_y cartes_z fx fy fz
1 0 11.131339 8.243233 6.701289 -1.926312 0.189766 0.173614
2 0 9.586339 8.237233 6.523889 0.769514 -0.849560 0.911203
3 0 9.114339 6.837033 7.033089 -1.218256 0.349696 0.777446
4 0 7.590439 6.825333 7.539089 1.746443 1.475208 -1.281945
5 0 6.810939 8.028233 6.962989 2.287113 -0.454194 1.405213
6 0 7.580639 9.344233 7.392089 -4.662657 0.928795 -1.440742
7 1 11.493339 9.136233 6.285189 0.997936 1.368042 -0.825199
8 1 11.451339 8.196233 7.726089 -0.085957 0.006145 0.923970
9 1 11.537339 7.371533 6.219389 0.257623 -0.493884 -0.614701
10 1 9.360339 8.396233 5.469989 -0.221544 -0.022058 -0.271323
11 1 9.289339 6.056733 6.264089 -0.216593 0.484362 -0.143412
12 1 9.798339 6.528233 7.850089 -0.317687 0.183771 0.020533
13 1 7.100139 5.943533 7.250089 -0.635934 -1.703884 -0.273271
14 1 7.542139 6.944033 8.613089 0.138049 -0.200642 0.586679
15 1 5.825639 7.971233 7.417089 -0.275293 0.698401 0.231123
16 1 6.644439 8.008233 5.894289 0.313890 -0.034151 -0.708681
17 2 6.673239 10.228233 7.641089 4.691758 -1.066544 0.072450
18 2 8.970339 9.454233 7.217089 -1.659048 -0.893826 0.455098
Energy
-103.428693430000
PlusStress: xx yy zz yz xz xy
0.003566 0.000650 -0.000127 0.000119 -0.000175 -0.000957
Feature EFS_by vasp
Feature from database:p.cfg
Feature mindist 2.70
END_CFG

BEGIN_CFG
Size
18
Supercell
17.500000 0.000000 0.000000
0.000000 15.750000 0.000000
0.000000 0.000000 14.000000
AtomData: id type cartes_x cartes_y cartes_z fx fy fz
1 0 10.967077 8.574861 6.735060 0.352567 -0.352854 0.950718
2 0 9.511974 8.155342 6.567573 -0.332159 0.263869 -1.299077
3 0 9.039119 6.791090 7.045481 -0.194378 -1.365105 0.874396
4 0 7.542449 6.781581 7.500738 -0.089397 0.495769 0.168123
5 0 6.811673 7.981582 6.841896 0.012905 1.208953 -0.697157
6 0 7.535329 9.306369 7.276388 0.457057 -2.956425 -0.524179
7 1 11.098195 9.650664 6.391994 0.005687 -1.196890 0.404651
8 1 11.077981 8.482987 7.862349 0.363350 0.530905 -0.918433
9 1 11.743862 7.890419 6.313336 -0.594862 0.387138 -0.133419
10 1 9.143981 8.235253 5.488263 0.528250 0.213320 0.874887
11 1 9.145909 5.981686 6.316713 0.123722 0.326460 -0.833590
12 1 9.633146 6.335672 7.862086 0.134529 0.646939 0.223334
13 1 7.063437 5.763479 7.290357 0.410871 1.296273 0.380002
14 1 7.536902 7.040847 8.592411 -0.226459 -0.709708 -0.474615
15 1 5.732399 8.135871 7.063165 0.450494 -0.388450 0.082939
16 1 6.911098 7.977129 5.718132 -0.188570 -0.243646 0.623414
17 2 7.152597 10.346200 7.670520 -3.379682 3.216412 1.054898
18 2 8.855787 9.220710 7.332420 2.172525 -1.362570 -0.746390
Energy
-103.948439310000
PlusStress: xx yy zz yz xz xy
-0.000330 0.001358 0.001162 -0.000370 0.000387 0.001316
Feature EFS_by vasp
Feature from database:p.cfg
Feature mindist 2.70
END_CFG

BEGIN_CFG
Size
18
Supercell
17.500000 0.000000 0.000000
0.000000 15.750000 0.000000
0.000000 0.000000 14.000000
AtomData: id type cartes_x cartes_y cartes_z fx fy fz
1 0 11.076664 8.321961 6.638341 -2.027440 -0.157726 -1.027499
2 0 9.497272 8.244814 6.691914 2.692219 -2.242095 0.057414
3 0 9.059551 6.816490 7.118093 -0.271264 -0.128681 0.117430
4 0 7.547123 6.807226 7.319230 -0.304878 0.233315 -0.058178
5 0 6.869564 8.057066 6.779929 -0.155830 0.858266 0.978012
6 0 7.507678 9.306008 7.343560 0.228920 2.655623 0.303031
7 1 11.395063 9.255945 6.208189 0.223723 0.780732 -0.057575
8 1 11.568875 8.127759 7.557695 0.423420 -0.137090 1.221125
9 1 11.364410 7.552028 5.911687 0.128281 -0.177675 0.028415
10 1 9.205566 8.316072 5.669888 -0.497492 0.420992 -1.305844
11 1 9.339779 6.028267 6.399118 0.164699 0.475733 -0.384205
12 1 9.541013 6.471849 8.038515 0.227365 0.305450 0.312709
13 1 7.012314 5.986905 6.862224 0.070361 -0.798913 -0.226498
14 1 7.333314 6.756734 8.374393 -0.229668 -0.080545 0.742986
15 1 5.828936 8.123083 7.117418 -0.192384 -0.141880 -0.243627
16 1 6.894774 8.093533 5.693617 -0.012154 0.090000 -0.470978
17 2 6.963632 10.372873 7.690377 0.544742 -2.289232 -0.490135
18 2 8.907154 9.270872 7.436296 -1.001729 0.356087 0.502624
Energy
-104.332737950000
PlusStress: xx yy zz yz xz xy
0.000764 0.000825 -0.000579 0.000246 -0.000033 -0.000093
Feature EFS_by vasp
Feature from database:p.cfg
Feature mindist 2.70
END_CFG

BEGIN_CFG
Size
18
Supercell
17.500000 0.000000 0.000000
0.000000 15.750000 0.000000
0.000000 0.000000 14.000000
AtomData: id type cartes_x cartes_y cartes_z fx fy fz
1 0 11.086416 8.252538 6.719447 0.141047 0.926342 0.408232
2 0 9.555126 8.135359 6.641865 0.652501 0.330878 -1.230715
3 0 9.030619 6.873266 7.248674 -1.009428 -0.948225 0.325589
4 0 7.469788 6.817663 7.156988 -1.182998 -0.326686 0.987769
5 0 6.848409 8.176903 6.759929 0.662567 -0.224164 -0.376217
6 0 7.578311 9.336752 7.358822 -1.204188 0.237917 -0.162341
7 1 11.372092 9.271651 6.353649 -0.054022 -0.492730 0.266797
8 1 11.546047 8.117420 7.754954 -0.645085 -0.027618 -1.069872
9 1 11.505983 7.539134 5.984461 0.042406 0.001149 0.404378
10 1 9.342286 8.154049 5.512986 -0.164081 0.130374 1.164064
11 1 9.433129 5.983431 6.731956 0.213171 0.243030 0.027689
12 1 9.362187 6.799471 8.319558 -0.221684 0.119180 -0.619320
13 1 6.971033 6.049926 6.502322 0.992202 0.243825 0.209427
14 1 7.068049 6.559408 8.182420 0.318329 0.215870 -0.699306
15 1 5.823311 8.315722 7.105836 -0.274696 -0.302798 -0.263372
16 1 6.916079 8.321806 5.650889 -0.238477 -0.147617 0.439425
17 2 6.953278 10.268753 7.847934 0.798801 0.211226 0.197760
18 2 8.918380 9.320787 7.266106 1.194977 -0.181396 -0.007145
Energy
-104.483302760000
PlusStress: xx yy zz yz xz xy
0.001106 0.000600 0.001844 -0.000051 0.000215 -0.000381
Feature EFS_by vasp
Feature from database:p.cfg
Feature mindist 2.70
END_CFG

BEGIN_CFG
Size
18
Supercell
17.500000 0.000000 0.000000
0.000000 15.750000 0.000000
0.000000 0.000000 14.000000
AtomData: id type cartes_x cartes_y cartes_z fx fy fz
1 0 10.950282 8.393252 6.869550 0.859031 -0.950137 -0.000433
2 0 9.545239 8.029482 6.533830 -0.312922 0.748398 0.356374
3 0 8.881205 6.929150 7.345464 0.867404 -0.902948 -0.613825
4 0 7.423870 6.804706 7.043345 -0.796366 1.010218 -1.390559
5 0 6.832337 8.197931 6.752403 0.196951 0.051603 1.043688
6 0 7.650943 9.294437 7.401500 0.215272 -2.135743 -2.231237
7 1 11.251507 9.328901 6.399280 0.125795 0.002662 -0.323652
8 1 10.871416 8.583441 7.912129 0.395560 0.420480 1.386470
9 1 11.699644 7.606164 6.779216 0.175059 -0.228670 -0.499489
10 1 9.388288 7.931753 5.462655 -0.291420 -0.043315 -0.546821
11 1 9.398814 5.949832 7.203869 -0.053674 0.480145 0.317320
12 1 8.946246 7.292633 8.359592 0.457319 -0.226346 0.926831
13 1 7.172605 6.214698 6.179651 0.309709 -0.713746 -0.809977
14 1 6.835097 6.358229 7.803967 -0.328835 -0.546500 1.368012
15 1 5.780679 8.272749 7.078531 0.236510 0.147627 -0.286969
16 1 6.968443 8.495494 5.717240 -0.407789 -0.289757 -0.751491
17 2 7.191426 10.197192 7.999326 -1.098637 2.914369 2.216851
18 2 8.958236 9.292336 7.019578 -0.541391 0.284276 -0.157050
Energy
-104.098322380000
PlusStress: xx yy zz yz xz xy
-0.000824 -0.000669 -0.001184 -0.000641 -0.000111 0.000679
Feature EFS_by vasp
Feature from database:p.cfg
Feature mindist 2.70
END_CFG

BEGIN_CFG
Size
18
Supercell
17.500000 0.000000 0.000000
0.000000 15.750000 0.000000
0.000000 0.000000 14.000000
AtomData: id type cartes_x cartes_y cartes_z fx fy fz
1 0 11.141017 8.048598 6.924804 -0.399347 -0.214970 1.637205
2 0 9.617668 8.120391 6.631222 0.018062 0.680142 -0.809444
3 0 8.919581 7.018496 7.371485 0.035743 0.321955 0.191647
4 0 7.515985 6.873481 6.869443 -2.496674 -1.383936 -1.415921
5 0 6.653791 8.163084 6.781359 2.120760 1.585364 0.544571
6 0 7.541081 9.329505 7.354089 -0.666112 2.056784 1.344103
7 1 11.793352 8.731141 6.355862 -0.224372 -0.164605 0.106925
8 1 11.367810 8.095510 8.041729 -0.307837 0.577033 -0.984908
9 1 11.395411 6.972058 6.763926 0.085871 0.596584 -0.593941
10 1 9.524192 8.049630 5.527408 -0.140770 -0.305312 0.135572
11 1 9.481491 6.126237 7.076949 -0.013464 -0.441009 0.810401
12 1 8.995211 7.349170 8.446138 -0.031934 -0.880013 -0.480851
13 1 7.562206 6.406031 5.833791 0.063569 0.405453 0.796754
14 1 6.796042 6.183227 7.408571 1.318641 0.112770 0.002700
15 1 5.754797 8.078179 7.395116 -0.149075 0.262038 -0.123978
16 1 6.426606 8.524596 5.753321 -0.093285 -0.466706 0.294504
17 2 7.139877 10.273283 8.088914 0.691573 -2.402078 -1.929313
18 2 8.881755 9.382745 6.958600 0.186213 -0.320977 0.482803
Energy
-103.844926330000
PlusStress: xx yy zz yz xz xy
0.002153 0.001135 0.001780 0.000546 -0.000194 -0.000288
Feature EFS_by vasp
Feature from database:p.cfg
Feature mindist 2.70
END_CFG

BEGIN_CFG
Size
18
Supercell
17.500000 0.000000 0.000000
0.000000 15.750000 0.000000
0.000000 0.000000 14.000000
AtomData: id type cartes_x cartes_y cartes_z fx fy fz
1 0 11.020599 8.303559 6.933293 -0.261115 -0.341360 -0.247887
2 0 9.539494 8.023065 6.715832 -0.060139 1.076032 -1.017841
3 0 8.838112 6.769003 7.274442 0.179619 0.499668 -2.020680
4 0 7.389911 6.748953 6.742532 -0.143895 2.541816 0.916815
5 0 6.723307 8.204590 6.864292 1.294617 0.980014 0.452213
6 0 7.653572 9.397048 7.357418 -0.053037 -2.036574 -0.711982
7 1 11.241621 9.319025 6.562106 0.009516 -0.257988 0.030053
8 1 11.283968 8.249721 7.975078 0.052651 0.136440 0.885703
9 1 11.658933 7.581137 6.443849 0.291842 -0.391527 -0.522460
10 1 9.345054 8.093219 5.600989 0.136375 -0.453601 0.649608
11 1 9.380800 5.953540 6.767166 0.033942 -0.305311 0.522707
12 1 8.905390 6.708518 8.344416 0.116835 -0.101775 0.805340
13 1 7.345455 6.473868 5.706362 0.201449 -0.257980 -0.811384
14 1 6.741243 6.093495 7.270798 -0.477678 -1.011173 0.711997
15 1 5.895459 8.398208 7.561741 -0.230167 -0.864907 -0.052300
16 1 6.373221 8.536166 5.883946 -0.157640 0.036300 -0.261327
17 2 7.275032 10.399875 7.884667 -1.691604 1.676564 0.738919
18 2 8.972724 9.281033 7.226720 0.754336 -0.908693 -0.057199
Energy
-104.238045680000
PlusStress: xx yy zz yz xz xy
-0.000020 0.000925 -0.000008 -0.000071 0.000512 0.000793
Feature EFS_by vasp
Feature from database:p.cfg
Feature mindist 2.70
END_CFG

BEGIN_CFG
Size
18
Supercell
17.500000 0.000000 0.000000
0.000000 15.750000 0.000000
0.000000 0.000000 14.000000
AtomData: id type cartes_x cartes_y cartes_z fx fy fz
1 0 11.056750 8.045100 6.956637 0.543752 0.056380 -0.081747
2 0 9.561923 8.184460 6.694505 0.797127 -1.382755 0.984769
3 0 8.881307 6.827198 6.997508 0.019442 -0.461826 0.758785
4 0 7.374190 6.837207 6.767558 -1.096216 -0.569169 0.060577
5 0 6.762094 8.208879 6.952787 -0.231119 1.665513 0.287899
6 0 7.639717 9.394036 7.369647 0.386824 0.985358 0.473740
7 1 11.609550 8.979914 6.753753 -0.181430 -0.059829 -0.110222
8 1 11.254682 7.816911 8.028806 -0.148175 -0.180912 -0.456414
9 1 11.486017 7.246287 6.288440 -0.289136 0.501929 0.606184
10 1 9.406038 8.551161 5.699873 -0.193661 -0.084920 -1.192827
11 1 9.320582 5.978184 6.424076 0.077524 0.518174 0.150374
12 1 9.074847 6.587017 8.099234 -0.038096 0.367634 -1.078249
13 1 7.075344 6.597983 5.715149 0.556874 -0.514878 0.581642
14 1 6.841925 6.119166 7.467787 0.584642 0.382807 -0.813364
15 1 6.002028 8.380870 7.740741 -0.070648 -0.840170 -0.058968
16 1 6.211001 8.504550 6.036481 0.271653 0.183348 0.206993
17 2 7.115095 10.466537 7.661728 0.923519 -0.882014 -0.205842
18 2 9.042416 9.216645 7.553019 -1.898388 0.335547 -0.115321
Energy
-104.281348130000
PlusStress: xx yy zz yz xz xy
0.001362 0.000970 0.001224 -0.000070 0.000223 0.000068
Feature EFS_by vasp
Feature from database:p.cfg
Feature mindist 2.70
END_CFG

BEGIN_CFG
Size
18
Supercell
17.500000 0.000000 0.000000
0.000000 15.750000 0.000000
0.000000 0.000000 14.000000
AtomData: id type cartes_x cartes_y cartes_z fx fy fz
1 0 11.072195 8.022850 7.086426 -0.805252 0.554579 -0.096355
2 0 9.602836 8.028859 6.649243 0.523255 2.763982 0.392924
3 0 8.861624 6.831730 6.976293 -1.059151 -1.861129 -1.678643
4 0 7.383320 6.948364 6.599880 0.076996 1.568036 0.817052
5 0 6.754395 8.263036 7.104831 -0.893537 -0.398397 0.032070
6 0 7.632882 9.407049 7.381884 0.210203 1.119236 0.271148
7 1 11.478844 9.030966 7.042094 0.038418 0.403872 0.054625
8 1 11.215983 7.644050 8.105215 -0.138369 -0.121390 0.011525
9 1 11.647153 7.448350 6.384161 0.448266 -0.693307 -0.462097
10 1 9.479671 8.461582 5.604390 0.178144 -0.809721 0.765158
11 1 9.198899 5.956726 6.411671 0.487429 -0.121366 -0.482311
12 1 9.103951 6.516498 7.963814 -0.275494 0.035466 1.488555
13 1 7.265224 6.968459 5.529165 0.192140 -0.251063 -0.819692
14 1 6.840961 6.113822 6.974867 -0.670940 -0.971209 0.362068
15 1 6.247612 8.195184 8.074015 -0.060789 -0.595424 0.389587
16 1 5.938657 8.677483 6.504388 -0.104701 -0.290901 -0.521682
17 2 7.178609 10.523999 7.637266 0.584846 -0.545728 -0.101554
18 2 8.946993 9.139731 7.511288 1.269133 0.224068 -0.418293
Energy
-104.270104550000
PlusStress: xx yy zz yz xz xy
0.000094 -0.000256 0.000073 -0.000037 0.000205 -0.001112
Feature EFS_by vasp
Feature from database:p.cfg
Feature mindist 2.70
END_CFG

BEGIN_CFG
Size
18
Supercell
17.500000 0.000000 0.000000
0.000000 15.750000 0.000000
0.000000 0.000000 14.000000
AtomData: id type cartes_x cartes_y cartes_z fx fy fz
1 0 10.977241 8.044250 7.239281 1.227393 -1.177538 -0.255784
2 0 9.556051 7.971327 6.768617 1.230120 0.366307 -0.631802
3 0 8.718104 6.738517 6.986695 0.508178 -0.979335 1.195247
4 0 7.410936 7.094830 6.375687 -2.338541 -0.738230 -0.577875
5 0 6.794629 8.182797 7.243128 -0.455134 0.240396 0.562084
6 0 7.683159 9.410679 7.483929 0.585133 -1.486760 -1.189346
7 1 11.471164 8.996015 6.939426 -0.383054 -0.377764 0.210511
8 1 11.005166 7.920905 8.326245 0.201109 0.132264 0.223551
9 1 11.581780 7.202699 6.785630 -0.422028 0.575333 0.369926
10 1 9.556817 8.112127 5.695079 0.279311 -0.347983 -0.967992
11 1 9.214312 5.838521 6.579702 0.057338 0.375222 -0.610907
12 1 8.584521 6.366225 8.048493 0.036971 0.913059 -0.420980
13 1 7.480668 7.395066 5.294727 0.119707 -0.198690 0.658948
14 1 6.623315 6.287321 6.451504 0.876845 0.165915 -0.453036
15 1 6.481002 7.633986 8.165207 0.403670 0.744361 0.066475
16 1 5.839111 8.589095 6.866388 0.193154 -0.055234 -0.196947
17 2 7.251436 10.504703 7.722841 -0.140472 0.994407 0.605657
18 2 9.035824 9.245631 7.166509 -1.982119 0.865326 1.421691
Energy
-104.217843300000
PlusStress: xx yy zz yz xz xy
0.000155 0.000678 0.000334 -0.000727 -0.000237 0.000674
Feature EFS_by vasp
Feature from database:p.cfg
Feature mindist 2.70
END_CFG

BEGIN_CFG
Size
18
Supercell
17.500000 0.000000 0.000000
0.000000 15.750000 0.000000
0.000000 0.000000 14.000000
AtomData: id type cartes_x cartes_y cartes_z fx fy fz
1 0 10.921205 7.805148 7.500811 -0.492261 0.684930 0.637350
2 0 9.697764 8.114538 6.660575 -1.122435 0.276620 -0.895273
3 0 8.778046 6.915009 6.735205 0.227076 -1.576861 -0.189617
4 0 7.281512 6.978434 6.465527 0.246476 2.413940 -0.433657
5 0 6.748244 8.225169 7.278884 -0.131626 -1.221024 -0.337021
6 0 7.714713 9.355124 7.466892 -1.202478 2.225142 0.014776
7 1 11.746477 8.424967 7.193854 0.629799 0.466175 0.149260
8 1 10.717180 7.892319 8.587550 0.027470 0.288069 -0.300433
9 1 11.200238 6.772323 7.365280 0.215235 -0.667996 -0.350688
10 1 10.015183 8.409358 5.624299 -0.174345 -0.626006 0.406579
11 1 9.319970 6.140647 6.160345 -0.424586 -0.130359 -0.164239
12 1 8.844422 6.539164 7.751946 0.206692 -0.126495 0.729401
13 1 7.060428 7.126471 5.414599 0.025768 0.163284 -0.658899
14 1 6.729877 6.096818 6.740405 -0.035874 -0.712955 0.425510
15 1 6.413047 7.786130 8.224287 0.044685 0.462571 0.479610
16 1 5.870263 8.758058 6.862608 0.098313 -0.512418 -0.085349
17 2 7.316787 10.482120 7.797585 -0.197465 -0.946720 0.336922
18 2 8.964497 9.329714 7.035541 2.056124 -0.449471 0.235376
Energy
-104.127016890000
PlusStress: xx yy zz yz xz xy
0.000245 0.000412 0.000082 -0.000282 -0.000042 -0.000108
Feature EFS_by vasp
Feature from database:p.cfg
Feature mindist 2.70
END_CFG

BEGIN_CFG
Size
18
Supercell
17.500000 0.000000 0.000000
0.000000 15.750000 0.000000
0.000000 0.000000 14.000000
AtomData: id type cartes_x cartes_y cartes_z fx fy fz
1 0 10.871672 7.953744 7.656317 0.548476 -0.751508 -1.610825
2 0 9.675282 7.959392 6.638351 -0.550997 -0.553283 1.531132
3 0 8.692731 6.733816 6.696429 0.416206 0.298733 0.512713
4 0 7.298928 7.176240 6.303521 -1.504992 0.233343 -0.443035
5 0 6.825421 8.236669 7.319657 -0.658086 -0.755492 -0.047904
6 0 7.670675 9.459839 7.399254 1.426437 -1.809015 0.081594
7 1 11.328572 8.973884 7.698250 -0.267938 -0.677718 0.013544
8 1 10.658666 7.563067 8.653792 -0.580577 0.276075 0.198923
9 1 11.623387 7.216669 7.265695 -0.120307 0.554863 0.084648
10 1 10.033104 8.123712 5.600599 -0.001320 -0.157025 0.257204
11 1 9.084639 5.934047 6.041274 -0.085853 -0.020691 0.335606
12 1 8.520466 6.362290 7.770122 0.856264 0.192079 -1.137490
13 1 7.131264 7.609248 5.285467 0.596627 -0.395378 0.234706
14 1 6.576352 6.315633 6.384363 0.543945 0.457678 -0.143877
15 1 6.934162 7.710627 8.285589 -0.274779 0.405772 0.301509
16 1 5.767439 8.505216 7.188502 0.018223 0.005105 0.063035
17 2 7.401535 10.523759 7.901378 -0.052046 0.413887 -0.334086
18 2 8.976093 9.170271 6.987058 -0.308955 2.300705 0.106393
Energy
-104.206777740000
PlusStress: xx yy zz yz xz xy
0.001010 0.001082 0.001372 -0.000090 0.000118 0.000065
Feature EFS_by vasp
Feature from database:p.cfg
Feature mindist 2.70
END_CFG

BEGIN_CFG
Size
18
Supercell
17.500000 0.000000 0.000000
0.000000 15.750000 0.000000
0.000000 0.000000 14.000000
AtomData: id type cartes_x cartes_y cartes_z fx fy fz
1 0 10.878436 7.697707 7.571709 -0.657353 0.748417 0.819916
2 0 9.684947 7.950728 6.665613 -0.806891 0.217609 0.689208
3 0 8.703577 6.811016 6.779573 -1.024475 1.054348 -2.431876
4 0 7.307149 7.260043 6.245979 0.616454 0.681620 -0.065332
5 0 6.808550 8.264056 7.280143 -0.731443 -0.692892 0.133062
6 0 7.713609 9.426314 7.434306 0.646511 0.360966 0.101892
7 1 11.378911 8.649755 7.675899 0.892167 0.323247 -0.090727
8 1 10.546241 7.464553 8.604324 -0.180361 -0.038009 -0.261184
9 1 11.536738 6.875973 7.286273 0.124057 0.036424 -0.492301
10 1 9.956882 8.187678 5.635817 0.251153 -0.292565 -0.283098
11 1 9.092559 5.956162 6.219409 0.075284 -0.282764 0.144241
12 1 8.529407 6.606723 7.802919 0.147487 -0.776432 1.402897
13 1 7.327903 7.859335 5.314944 0.462264 -0.508995 -0.230855
14 1 6.673106 6.400449 6.053047 -0.484004 -0.222211 0.222540
15 1 6.810822 7.767961 8.269843 -0.476904 0.132247 0.024997
16 1 5.829389 8.742661 7.076306 0.067882 -0.570820 0.127857
17 2 7.302667 10.488540 7.878686 0.630590 -0.035741 -0.229506
18 2 9.027255 9.275638 7.051607 0.452940 -0.131034 0.417173
Energy
-104.359226440000
PlusStress: xx yy zz yz xz xy
0.000432 0.000662 0.000196 -0.000249 0.000169 -0.001240
Feature EFS_by vasp
Feature from database:p.cfg
Feature mindist 2.70
END_CFG

BEGIN_CFG
Size
18
Supercell
17.500000 0.000000 0.000000
0.000000 15.750000 0.000000
0.000000 0.000000 14.000000
AtomData: id type cartes_x cartes_y cartes_z fx fy fz
1 0 10.906431 7.740753 7.462890 0.583883 -0.308305 0.906207
2 0 9.654524 7.981508 6.665952 -0.074054 0.992818 -0.315228
3 0 8.684892 6.796331 6.637143 0.425872 0.098715 1.394324
4 0 7.264112 7.180827 6.323925 -0.866273 0.060604 -0.548927
5 0 6.675195 8.379694 7.092562 1.857060 -0.329688 -0.462882
6 0 7.754949 9.425846 7.467590 -0.690154 1.187810 0.475404
7 1 11.695950 8.507471 7.319218 -0.251960 -0.365274 -0.242402
8 1 10.595400 7.856275 8.531412 0.246882 -0.260129 -0.433003
9 1 11.299278 6.717224 7.358534 0.174882 0.142701 -0.238571
10 1 9.869406 8.441691 5.650556 -0.280418 -0.597353 0.677457
11 1 8.915278 6.061923 5.848405 0.694185 -0.089912 0.403190
12 1 8.778593 6.356896 7.689353 -0.218368 -0.009695 -1.148589
13 1 7.246154 7.461714 5.250740 -0.089075 -0.169234 0.085746
14 1 6.627993 6.272686 6.418248 0.069198 0.374074 -0.047142
15 1 6.119604 8.062803 7.981061 -0.008379 0.251289 0.172240
16 1 6.047240 8.932388 6.399740 -0.623761 0.150587 0.130151
17 2 7.355143 10.553521 7.796635 1.151129 -1.366484 -0.195515
18 2 9.122452 9.129282 7.472550 -2.104579 0.251842 -0.604182
Energy
-104.251167680000
PlusStress: xx yy zz yz xz xy
0.000994 0.001286 0.001383 0.000068 -0.000182 0.000526
Feature EFS_by vasp
Feature from database:p.cfg
Feature mindist 2.70
END_CFG

BEGIN_CFG
Size
18
Supercell
17.500000 0.000000 0.000000
0.000000 15.750000 0.000000
0.000000 0.000000 14.000000
AtomData: id type cartes_x cartes_y cartes_z fx fy fz
1 0 10.949115 7.670762 7.222699 0.206025 0.179053 -0.570804
2 0 9.493804 7.951321 6.856515 1.339346 0.665966 0.889985
3 0 8.599511 6.731206 6.896317 -0.081259 -0.266767 -0.478936
4 0 7.344006 7.193808 6.104914 0.352691 1.012239 0.453799
5 0 6.755999 8.395044 6.921160 -0.086444 0.443833 -0.340817
6 0 7.730231 9.494504 7.485770 1.257467 -2.080470 -0.795860
7 1 11.527567 8.588170 7.408671 -0.249797 0.087942 0.078553
8 1 11.012697 7.036769 8.099918 0.110594 -0.285553 0.430861
9 1 11.477238 7.174299 6.377935 -0.337334 -0.042301 0.295183
10 1 9.462812 8.316596 5.841051 0.136778 0.326930 -0.736859
11 1 9.199527 5.925472 6.394999 -0.567529 0.309759 0.118620
12 1 8.441448 6.388062 7.945131 -0.284251 0.193408 -0.408558
13 1 7.711177 7.592343 5.102744 -0.472659 -0.542913 0.838271
14 1 6.496091 6.512887 5.917798 0.436093 -0.311875 0.119190
15 1 6.231076 8.008658 7.824399 0.080475 0.116472 -0.310866
16 1 5.996876 8.900796 6.270933 0.360926 -0.007979 0.651511
17 2 7.431291 10.603709 7.792850 -1.204831 1.684817 0.518157
18 2 9.074327 9.144565 7.677442 -0.990407 -1.466689 -0.738585
Energy
-104.318174750000
PlusStress: xx yy zz yz xz xy
0.001140 0.000780 0.001364 0.000195 0.000299 0.000342
Feature EFS_by vasp
Feature from database:p.cfg
Feature mindist 2.70
END_CFG

BEGIN_CFG
Size
18
Supercell
17.500000 0.000000 0.000000
0.000000 15.750000 0.000000
0.000000 0.000000 14.000000
AtomData: id type cartes_x cartes_y cartes_z fx fy fz
1 0 11.052021 7.662195 7.293025 -0.829840 -1.153799 0.423602
2 0 9.597290 7.956764 6.870242 -0.569343 0.473113 -0.680797
3 0 8.569616 6.786694 6.814432 0.806426 -0.452107 -0.042454
4 0 7.250857 7.171213 6.146959 -0.735518 1.375246 1.788733
5 0 6.665805 8.575948 6.758310 1.737859 -1.363868 0.187109
6 0 7.731004 9.456502 7.450838 0.280760 2.240592 0.391448
7 1 11.725844 8.501057 7.498913 -0.546552 0.422335 0.289099
8 1 11.070103 6.916792 8.139332 0.204897 0.620207 -0.569537
9 1 11.499766 7.219459 6.399003 0.151993 -0.538930 -0.046885
10 1 9.698800 8.403796 5.829864 -0.378100 -0.303781 0.696148
11 1 8.976283 5.937307 6.271271 0.520158 -0.141299 -0.841341
12 1 8.450471 6.245304 7.766366 -0.218240 0.802310 0.590566
13 1 7.415006 7.288812 5.085326 0.031074 0.248018 -0.600707
14 1 6.492153 6.376421 6.275023 0.169858 0.157684 0.008763
15 1 5.961713 8.479428 7.595614 -0.250474 -0.575661 -0.071868
16 1 6.129999 9.091434 5.974127 -0.050825 0.628296 -0.277559
17 2 7.517258 10.598761 7.897564 -0.658482 -1.616837 -0.739675
18 2 9.001442 9.018906 7.709807 0.331255 -0.815912 -0.486367
Energy
-104.129492990000
PlusStress: xx yy zz yz xz xy
0.001912 0.001679 0.000902 0.000357 0.000237 0.000548
Feature EFS_by vasp
Feature from database:p.cfg
Feature mindist 2.70
END_CFG

BEGIN_CFG
Size
18
Supercell
17.500000 0.000000 0.000000
0.000000 15.750000 0.000000
0.000000 0.000000 14.000000
AtomData: id type cartes_x cartes_y cartes_z fx fy fz
1 0 10.860226 7.540431 7.511290 0.921189 0.297873 -0.612062
2 0 9.608636 7.991851 6.767063 0.257740 -1.658522 -0.787431
3 0 8.597402 6.834994 6.633642 -0.579380 -1.121729 0.989963
4 0 7.125064 7.240290 6.220972 0.785398 -2.195623 -1.050385
5 0 6.798761 8.602994 6.694187 -0.517417 2.440573 0.485782
6 0 7.838025 9.488344 7.451882 -0.581125 -1.211882 -0.146432
7 1 11.676862 8.289970 7.403143 -0.338628 -0.190785 0.001273
8 1 10.562562 7.565348 8.548157 0.097799 -0.377302 0.766084
9 1 11.303789 6.557548 7.228739 -0.555044 0.360517 0.020479
10 1 9.850504 8.400590 5.781897 0.114690 -0.036192 -0.433239
11 1 9.018980 5.984052 6.048358 -0.135919 0.763958 -0.461905
12 1 8.552435 6.268397 7.622751 -0.105050 0.994348 -0.407912
13 1 6.941134 7.068690 5.087073 0.377792 0.453791 1.530433
14 1 6.415470 6.547642 6.741614 0.504123 0.075376 -0.479889
15 1 5.940042 8.614465 7.405952 0.366559 -0.076849 -0.251252
16 1 6.436929 9.281482 5.887033 0.189840 -0.274279 0.124939
17 2 7.446343 10.466976 8.048498 0.419408 0.445910 0.107948
18 2 9.146333 9.076039 7.542496 -1.220637 1.314641 0.621327
Energy
-104.205980350000
PlusStress: xx yy zz yz xz xy
0.001646 0.000492 0.000782 -0.000367 0.000399 0.000381
Feature EFS_by vasp
Feature from database:p.cfg
Feature mindist 2.70
END_CFG

BEGIN_CFG
Size
18
Supercell
17.500000 0.000000 0.000000
0.000000 15.750000 0.000000
0.000000 0.000000 14.000000
AtomData: id type cartes_x cartes_y cartes_z fx fy fz
1 0 10.796465 7.484378 7.517742 0.409285 -0.130736 0.039550
2 0 9.564131 7.812927 6.732351 0.605866 1.281475 0.614836
3 0 8.480400 6.837921 6.880823 -0.727281 0.207291 0.133709
4 0 7.325676 7.357708 6.065583 -0.952494 -0.092060 0.299297
5 0 6.830316 8.703704 6.639876 0.258499 0.039889 0.579051
6 0 7.850101 9.498070 7.470776 -1.890330 -0.555621 -0.085532
7 1 11.485397 8.324692 7.439700 0.254399 0.234967 0.389978
8 1 10.598591 7.186121 8.572673 -0.017949 0.415569 -0.441602
9 1 11.304007 6.645669 7.040337 0.133266 -0.388599 -0.171557
10 1 9.778967 7.982448 5.658657 0.123128 0.204580 0.234171
11 1 8.792467 5.823803 6.638825 0.147741 -0.266170 -0.399572
12 1 8.207895 6.820476 7.929845 -0.224189 -0.175237 0.707111
13 1 7.654474 7.470003 5.049436 0.169110 0.061168 -0.952934
14 1 6.545526 6.585877 6.078282 -0.397955 0.225895 -0.163513
15 1 6.033411 8.531946 7.356575 -0.446436 -0.204340 0.291628
16 1 6.401574 9.468290 5.976901 0.060757 -0.352557 -0.574562
17 2 7.452205 10.360720 8.247373 0.761491 0.084281 -0.302596
18 2 9.119750 9.169123 7.323358 1.739508 -0.578369 -0.183997
Energy
-104.402082950000
PlusStress: xx yy zz yz xz xy
-0.001143 0.001036 0.000245 0.000071 -0.000234 -0.000609
Feature EFS_by vasp
Feature from database:p.cfg
Feature mindist 2.70
END_CFG

BEGIN_CFG
Size
18
Supercell
17.500000 0.000000 0.000000
0.000000 15.750000 0.000000
0.000000 0.000000 14.000000
AtomData: id type cartes_x cartes_y cartes_z fx fy fz
1 0 10.870922 7.454091 7.597115 0.238263 -0.184190 0.073723
2 0 9.609714 7.766789 6.827267 -1.256448 -0.097568 -0.908074
3 0 8.387498 6.841308 6.821165 -0.144238 -0.426927 1.077484
4 0 7.292510 7.498056 5.975084 0.205948 -0.593311 -1.456098
5 0 6.766321 8.747801 6.647992 -0.862609 0.322791 0.243395
6 0 7.785922 9.466698 7.474699 0.990589 0.738932 1.239968
7 1 11.512543 8.351841 7.512078 -0.042702 -0.233850 0.237209
8 1 10.684568 7.213937 8.654631 -0.025253 0.178528 0.000199
9 1 11.437538 6.604383 7.158173 -0.330305 0.226292 -0.006892
10 1 9.889907 7.814742 5.736087 -0.060332 0.460499 0.497613
11 1 8.743639 5.849134 6.448410 -0.584967 0.330651 0.211983
12 1 7.905647 6.757033 7.856799 0.966127 -0.309497 -0.750460
13 1 7.744990 7.732836 4.960215 -0.555699 -0.154855 0.698852
14 1 6.416669 6.824286 5.815889 0.590331 0.086471 -0.092184
15 1 5.870408 8.507009 7.276283 0.617141 0.143048 0.007654
16 1 6.346274 9.491034 5.939570 0.249479 -0.153278 -0.047509
17 2 7.554800 10.380895 8.279705 0.394620 -1.364400 -1.464924
18 2 9.133532 9.069685 7.287816 -0.395442 1.053132 0.445626
Energy
-104.396661680000
PlusStress: xx yy zz yz xz xy
0.002122 0.000868 0.001210 0.000234 -0.000690 -0.000539
Feature EFS_by vasp
Feature from database:p.cfg
Feature mindist 2.70
END_CFG

BEGIN_CFG
Size
18
Supercell
17.500000 0.000000 0.000000
0.000000 15.750000 0.000000
0.000000 0.000000 14.000000
AtomData: id type cartes_x cartes_y cartes_z fx fy fz
1 0 10.726358 7.256660 7.701097 -0.061592 0.428221 -0.485694
2 0 9.622163 7.909193 6.853944 -0.740700 -0.035459 -0.424879
3 0 8.481334 6.925879 6.535947 -0.037549 0.389650 -0.861384
4 0 7.117095 7.400750 5.918776 2.001083 0.457805 1.616011
5 0 6.809546 8.664973 6.745317 -0.651880 0.827264 -0.547909
6 0 7.873122 9.474895 7.529456 -0.066873 -1.601741 -1.823390
7 1 11.652020 7.850638 7.699453 -0.064038 0.067794 -0.146493
8 1 10.447634 7.141878 8.743052 -0.398362 -0.094365 0.411642
9 1 10.954681 6.265751 7.290266 0.052923 -0.073414 -0.041267
10 1 10.029028 8.226367 5.901785 0.519631 0.278573 -0.541062
11 1 8.962206 6.196971 5.894805 0.037368 -0.752921 -0.109880
12 1 8.232290 6.519224 7.478057 -0.363976 -1.154713 1.331558
13 1 7.190477 7.520892 4.848602 0.095644 0.553587 -0.585915
14 1 6.377835 6.614353 6.081356 -0.176552 -0.101014 0.149175
15 1 6.055171 8.470570 7.493355 -0.454567 -0.362319 0.574414
16 1 6.294926 9.429706 6.134920 0.197451 0.040779 -0.032942
17 2 7.613404 10.475471 8.117298 -1.328394 2.109201 1.362393
18 2 9.159683 9.138870 7.481381 1.445746 -0.961659 0.161445
Energy
-104.225518770000
PlusStress: xx yy zz yz xz xy
0.000491 -0.000518 -0.000003 0.000231 0.001241 0.000583
Feature EFS_by vasp
Feature from database:p.cfg
Feature mindist 2.70
END_CFG

BEGIN_CFG
Size
18
Supercell
17.500000 0.000000 0.000000
0.000000 15.750000 0.000000
0.000000 0.000000 14.000000
AtomData: id type cartes_x cartes_y cartes_z fx fy fz
1 0 10.637068 7.235600 7.645847 0.744515 -0.611338 0.490907
2 0 9.505307 7.836584 6.866088 1.458502 -0.751093 -0.722716
3 0 8.480671 6.755479 6.446432 -0.402418 1.359355 1.262786
4 0 7.400145 7.642799 5.871730 -1.685454 -0.771720 -0.666677
5 0 6.787404 8.592050 6.969118 -0.130061 -0.752956 -0.273722
6 0 7.836204 9.514817 7.571316 -0.760442 1.247568 -0.566404
7 1 11.389240 7.968064 7.974231 -0.050444 0.139916 -0.200152
8 1 10.333436 6.690803 8.586041 -0.054891 0.249493 -0.856442
9 1 11.123097 6.542838 6.929740 0.112628 -0.110425 0.498652
10 1 9.923259 8.306104 5.930468 -0.157620 -0.441772 0.358797
11 1 8.849887 6.058185 5.662481 0.199089 0.220019 0.654075
12 1 8.133275 6.244578 7.402850 0.270456 0.061889 -1.098277
13 1 7.853641 8.136221 4.968838 -0.429940 0.328896 0.721559
14 1 6.585095 7.011843 5.418091 0.226186 0.468518 0.425847
15 1 6.342986 7.977855 7.817972 0.471898 0.357792 -0.774163
16 1 5.940423 9.143960 6.537215 0.183296 0.293776 0.171527
17 2 7.676293 10.683253 7.940904 -0.118827 -1.378168 -0.126867