BEGIN_CFG
Size
30
Supercell
21.750000 0.000000 0.000000
0.000000 14.250000 0.000000
0.000000 0.000000 15.500000
AtomData: id type cartes_x cartes_y cartes_z fx fy fz
1 0 15.306457 6.473333 9.623093 1.762279 1.360250 -0.668395
2 0 14.413457 6.589733 8.307093 1.074874 1.118048 2.532111
3 0 13.036457 7.117233 8.821093 0.881290 -0.346592 -2.330070
4 0 12.071457 6.946533 7.607793 -1.866635 -1.379418 3.566197
5 0 10.624357 7.200233 8.153093 -0.218698 -0.505742 -0.749795
6 0 9.711657 8.019233 7.220193 -0.119081 0.213972 0.048898
7 0 9.258957 7.223233 5.972493 -1.137983 -0.397478 0.003329
8 0 7.700457 7.401233 5.720693 0.891765 -1.465975 0.740806
9 0 6.990757 6.987633 7.066693 0.468907 2.355342 -1.837683
10 0 7.442757 7.947233 8.185093 -2.219175 -1.842373 2.973327
11 1 14.745457 6.070733 10.443093 -0.694679 -0.332732 0.614463
12 1 16.222457 5.850333 9.587093 -0.256539 -0.151169 -0.551629
13 1 15.774457 7.467233 10.021093 -1.124522 -1.084055 -0.836318
14 1 14.847457 7.321233 7.600293 0.011606 -0.009529 0.188028
15 1 14.392457 5.651333 7.748493 -0.382761 -0.371993 0.227555
16 1 12.734457 6.577533 9.730093 -0.288481 -0.275660 -0.265319
17 1 13.126457 8.184233 9.135093 -0.047511 -0.368639 -0.314233
18 1 12.249457 7.559233 6.805593 0.923204 2.062514 -1.968953
19 1 12.118457 5.921033 7.190993 0.106431 0.101648 0.304214
20 1 10.233557 6.186933 8.470093 -0.350411 0.788419 -0.657813
21 1 10.590957 7.748233 9.077093 0.617870 0.568154 0.759829
22 1 10.103557 8.986233 6.871193 0.852590 -0.274749 0.129191
23 1 9.514757 6.154533 6.165893 -0.626357 0.200501 0.044992
24 1 9.888857 7.414233 5.076593 -0.288297 0.618682 0.314004
25 1 7.347457 6.748233 4.916093 0.165806 -0.275351 -0.186571
26 1 7.424957 8.401233 5.384393 0.100155 0.453824 0.294400
27 1 5.883557 7.121233 6.948893 0.684243 -0.133888 0.320821
28 1 7.191557 5.950133 7.323393 0.188163 -0.259863 0.184153
29 2 6.646857 7.872233 9.190093 3.019369 1.651037 -2.242112
30 2 8.656057 8.658233 8.137093 -2.149498 -2.009743 -0.623712
Energy
-168.980533830000
PlusStress: xx yy zz yz xz xy
0.002022 0.001520 0.002215 0.000341 -0.000222 -0.000005
Feature EFS_by vasp
Feature from database:p.cfg
Feature mindist 2.70
END_CFG

BEGIN_CFG
Size
30
Supercell
21.750000 0.000000 0.000000
0.000000 14.250000 0.000000
0.000000 0.000000 15.500000
AtomData: id type cartes_x cartes_y cartes_z fx fy fz
1 0 15.328271 6.485809 9.652008 0.685652 -2.414520 2.381190
2 0 14.381164 6.491290 8.540315 0.837515 -0.127709 -2.484088
3 0 12.992272 6.988778 8.774643 -0.238310 -0.346424 1.326166
4 0 12.005323 6.931920 7.647887 -1.171829 1.240241 -1.506513
5 0 10.547037 7.093935 8.177182 1.784358 2.032396 1.531242
6 0 9.754473 7.984851 7.313617 -2.144802 0.597677 -1.022206
7 0 9.369880 7.498055 5.898217 0.105957 0.892912 0.053580
8 0 7.866108 7.437238 5.741173 -0.589755 0.111926 -0.881721
9 0 7.048731 6.934305 6.951940 1.202085 -0.059889 0.503192
10 0 7.326806 7.848610 8.189765 2.284161 -0.613864 -3.623445
11 1 15.093639 5.740838 10.500922 -0.113102 1.094467 -0.787211
12 1 16.330652 6.168588 9.375698 0.368800 -0.329784 -0.620187
13 1 15.520472 7.441072 10.038764 -0.110823 1.761303 1.082755
14 1 14.883857 7.154709 7.812600 -0.249119 0.061171 -0.446436
15 1 14.450904 5.491243 8.048168 -0.628847 0.257109 0.120744
16 1 12.616895 6.400754 9.644050 -0.282713 0.028044 -0.248180
17 1 12.990233 8.019578 9.162950 0.251670 0.124873 0.016769
18 1 12.140515 7.783827 6.841491 0.220202 -1.255663 1.391193
19 1 12.046801 6.008801 7.052423 0.218476 -0.194483 0.092678
20 1 10.171266 6.197236 8.595308 -0.999772 -1.525294 -0.313920
21 1 10.504159 7.744290 9.104223 0.823496 -0.518786 -0.257364
22 1 10.210432 8.977315 7.302941 0.793439 -0.076437 -0.439242
23 1 9.896399 6.582343 5.646378 -0.016070 -0.616677 0.082958
24 1 9.661507 8.217734 5.109932 0.449595 -0.004273 0.310242
25 1 7.666535 6.876676 4.776949 -0.248642 0.265608 0.919680
26 1 7.523238 8.494888 5.545632 0.080349 -0.739142 0.105054
27 1 6.027056 6.939088 6.610909 -0.889871 -0.084448 0.481386
28 1 7.334948 5.906221 7.289788 -0.203506 0.302580 -0.402674
29 2 6.655922 8.173178 9.100227 -2.390636 0.300386 2.244694
30 2 8.557023 8.463610 8.072028 0.161917 -0.152547 0.416607
Energy
-169.284668070000
PlusStress: xx yy zz yz xz xy
-0.000969 0.000655 0.000532 -0.000389 -0.000205 -0.000302
Feature EFS_by vasp
Feature from database:p.cfg
Feature mindist 2.70
END_CFG

BEGIN_CFG
Size
30
Supercell
21.750000 0.000000 0.000000
0.000000 14.250000 0.000000
0.000000 0.000000 15.500000
AtomData: id type cartes_x cartes_y cartes_z fx fy fz
1 0 15.504038 6.494961 9.733067 0.303463 2.923071 -0.594477
2 0 14.453685 6.374625 8.545714 2.073093 0.873960 0.119462
3 0 13.017591 6.635662 8.928567 -0.613863 0.149447 0.507303
4 0 11.996432 6.868352 7.760138 -0.109751 -0.770073 -0.036003
5 0 10.528549 7.181280 8.159081 -0.964074 -1.667670 0.445435
6 0 9.627952 8.173684 7.370172 1.569596 0.090588 -1.442520
7 0 9.253021 7.577068 5.970210 1.481039 -0.366748 -0.210558
8 0 7.785108 7.531820 5.620752 1.268072 -0.607543 1.421408
9 0 7.241092 6.880842 6.909691 -1.208772 0.603768 -0.820300
10 0 7.387378 7.899714 8.031854 -2.047560 0.581119 1.852838
11 1 15.458338 5.757839 10.488675 -0.774486 -1.077851 1.125646
12 1 16.621736 6.489040 9.524271 -1.097729 -0.028404 -0.792887
13 1 15.371762 7.546526 10.214195 0.020524 -1.521161 -0.377133
14 1 14.737985 7.150798 7.805787 0.147984 -0.239511 -0.037539
15 1 14.651769 5.408363 8.088989 -0.381232 -0.444748 -0.399142
16 1 12.774456 5.820490 9.625134 -0.755211 -0.143669 -0.092096
17 1 13.000336 7.544121 9.560750 -0.024012 0.004133 -0.051260
18 1 12.310489 7.736677 7.203561 0.641870 0.649143 -0.395879
19 1 12.056516 6.025646 7.024988 -0.130343 0.309807 0.398620
20 1 9.876402 6.212640 8.205998 1.023098 1.055211 -0.338290
21 1 10.481808 7.437654 9.211525 0.243860 0.688088 0.538753
22 1 9.979236 9.194525 7.143392 1.289191 -0.307963 0.104119
23 1 9.568157 6.492044 6.010844 0.033367 0.819452 -0.333311
24 1 9.888157 8.109040 5.221337 -0.267785 -0.354211 0.197931
25 1 7.701548 6.932799 4.725140 -0.537459 -0.315425 -0.419950
26 1 7.357078 8.506941 5.488597 -0.465652 0.748040 -0.275249
27 1 6.173088 6.619455 6.718213 0.418031 0.121900 0.843651
28 1 7.807129 5.984284 7.174131 0.033161 -0.301501 -0.119592
29 2 6.456134 8.202119 8.795527 1.102659 -0.474118 -1.034420
30 2 8.578951 8.565828 8.208731 -2.264020 -0.989128 0.237162
Energy
-169.366904940000
PlusStress: xx yy zz yz xz xy
0.000816 0.001423 0.000752 0.000139 0.001550 -0.000548
Feature EFS_by vasp
Feature from database:p.cfg
Feature mindist 2.70
END_CFG

BEGIN_CFG
Size
30
Supercell
21.750000 0.000000 0.000000
0.000000 14.250000 0.000000
0.000000 0.000000 15.500000
AtomData: id type cartes_x cartes_y cartes_z fx fy fz
1 0 15.313502 6.430685 9.638333 -0.518604 -1.581486 1.558378
2 0 14.389282 6.455404 8.443653 -0.421913 -0.646580 1.392321
3 0 12.884477 6.366192 9.010247 1.830806 1.139381 -1.638533
4 0 12.063040 7.013024 7.879168 -1.151579 0.073627 1.204150
5 0 10.601579 7.240229 8.366445 0.992089 1.649577 0.055389
6 0 9.755047 8.093531 7.444844 -0.761470 1.404003 -0.183064
7 0 9.549379 7.616567 5.997257 -1.517913 -0.012467 0.640632
8 0 8.008406 7.472170 5.659839 1.067244 0.925428 -0.406142
9 0 7.165887 6.958939 6.846751 0.004421 -0.635181 -1.710148
10 0 7.278891 7.909030 7.951603 0.203971 0.535653 1.442266
11 1 15.007023 5.635954 10.412940 0.162049 0.754934 -0.945177
12 1 16.352323 6.228508 9.487582 1.041642 -0.157897 -0.663210
13 1 15.275843 7.352757 10.177799 -0.138045 1.010635 0.546197
14 1 14.492276 7.434332 7.960705 0.045375 -0.076340 -0.317083
15 1 14.705725 5.650213 7.740997 -0.655935 0.288228 0.094837
16 1 12.633367 5.343279 9.335782 -0.187064 0.106709 -0.336028
17 1 12.823641 7.035418 9.894302 0.111887 -0.272495 -0.110571
18 1 12.550798 7.971400 7.588288 -0.305373 -0.274330 0.190328
19 1 12.091382 6.368620 7.010268 -0.063215 -0.322827 -0.589255
20 1 10.171760 6.290574 8.547883 -0.830579 -1.353087 0.201547
21 1 10.641827 7.780621 9.352075 -0.032203 -0.378444 -0.531027
22 1 10.174150 9.112084 7.384230 0.440366 -0.180779 0.145484
23 1 10.080523 6.687101 5.951449 0.325116 -0.938511 -0.623804
24 1 9.975042 8.352575 5.306564 0.186570 -0.180746 -0.106627
25 1 7.886885 6.878318 4.719056 -0.092379 0.296086 0.585416
26 1 7.726264 8.546516 5.446468 -0.271195 -0.934376 -0.035398
27 1 6.106804 6.984914 6.585135 -0.284021 -0.293988 -0.184966
28 1 7.430030 5.904104 7.066738 0.004419 0.328755 0.314967
29 2 6.377368 8.287144 8.686920 -0.341106 -0.293368 -0.222875
30 2 8.477234 8.490748 8.127227 1.129612 0.031180 0.239528
Energy
-169.797740340000
PlusStress: xx yy zz yz xz xy
0.000442 0.000636 0.000774 -0.000637 -0.000720 -0.000185
Feature EFS_by vasp
Feature from database:p.cfg
Feature mindist 2.70
END_CFG

BEGIN_CFG
Size
30
Supercell
21.750000 0.000000 0.000000
0.000000 14.250000 0.000000
0.000000 0.000000 15.500000
AtomData: id type cartes_x cartes_y cartes_z fx fy fz
1 0 15.371401 6.179110 9.688590 0.686188 1.744578 -0.121598
2 0 14.362463 6.402338 8.515962 1.814435 1.118932 0.187345
3 0 12.912591 6.396450 8.834368 -1.408513 -0.986667 0.951392
4 0 11.972602 7.242474 7.981358 0.400238 0.686400 -1.186544
5 0 10.515361 7.268770 8.500108 0.255822 -1.240344 -0.573352
6 0 9.673787 8.090697 7.546745 0.269941 0.511078 -0.801239
7 0 9.597155 7.336716 6.130748 0.959567 0.150339 2.040549
8 0 8.241763 7.497173 5.581566 -0.285677 -0.441297 -0.079038
9 0 7.248780 7.152560 6.676154 -0.933919 -1.345083 -1.282254
10 0 7.213873 7.973175 7.878418 2.742197 1.778033 0.386090
11 1 15.412323 5.200618 10.095298 -0.235275 -1.555276 0.180906
12 1 16.450394 6.396165 9.353487 -1.339262 -0.071106 0.325624
13 1 15.157507 6.810693 10.604620 0.102156 -0.116068 -0.942400
14 1 14.566429 7.430015 8.139491 0.256515 -0.263822 -0.111591
15 1 14.644515 5.710396 7.718138 -0.142196 -0.124773 -0.320863
16 1 12.549326 5.338049 8.859950 -0.059563 0.392684 0.025048
17 1 12.774918 6.769140 9.863065 0.066819 -0.063899 0.205667
18 1 12.350691 8.333309 7.976273 -0.357438 -1.222676 -0.061277
19 1 11.983698 6.900627 6.896499 0.154230 0.275267 0.934398
20 1 10.109742 6.182088 8.557248 0.445943 1.452735 0.157886
21 1 10.580028 7.720401 9.478515 -0.421762 0.111228 0.755534
22 1 10.187475 9.015972 7.265353 0.365471 0.237031 0.428617
23 1 9.866616 6.255247 6.328458 -0.202209 0.786059 -0.434227
24 1 10.376689 7.853362 5.542308 -0.122735 -0.563218 -0.188131
25 1 8.131176 6.848186 4.721833 -0.397556 -0.432096 -0.440403
26 1 8.138195 8.490970 5.200153 -0.435376 1.103687 -0.191055
27 1 6.211395 7.117866 6.300288 0.074246 -0.029232 0.025643
28 1 7.469718 6.119073 6.999935 -0.068580 -0.099881 0.035813
29 2 6.273447 8.188382 8.576434 -1.348946 0.196099 0.958400
30 2 8.453673 8.668322 8.169950 -0.839260 -1.984571 -0.853141
Energy
-169.754137040000
PlusStress: xx yy zz yz xz xy
0.000309 0.001137 0.000500 0.000083 -0.000008 -0.000014
Feature EFS_by vasp
Feature from database:p.cfg
Feature mindist 2.70
END_CFG

BEGIN_CFG
Size
30
Supercell
21.750000 0.000000 0.000000
0.000000 14.250000 0.000000
0.000000 0.000000 15.500000
AtomData: id type cartes_x cartes_y cartes_z fx fy fz
1 0 15.388738 5.800639 9.589638 -1.268056 -1.461311 0.736728
2 0 14.447722 6.535234 8.640112 -0.046360 -0.392412 -0.043137
3 0 12.974254 6.427818 9.048503 -0.794181 0.595806 -0.102991
4 0 12.054062 7.321549 8.179460 -0.849759 -0.587128 0.548684
5 0 10.558452 7.579111 8.590882 2.493710 1.039974 0.078774
6 0 9.690330 8.132595 7.488961 -0.441416 0.512645 -0.445914
7 0 9.496863 7.277933 6.219976 1.012053 1.471652 0.360735
8 0 8.180287 7.598175 5.484888 1.950917 1.148366 -1.156566
9 0 7.092041 7.215616 6.413217 -1.077564 -0.237845 0.601848
10 0 7.262012 7.911752 7.773359 -2.013538 0.945738 0.546323
11 1 15.165315 4.687746 9.770136 0.030781 1.159991 -0.664334
12 1 16.390080 5.869517 9.263144 1.506831 0.026800 -0.527886
13 1 15.363612 6.191483 10.603417 -0.107584 0.508016 0.393938
14 1 14.758884 7.589438 8.561388 -0.045492 0.092236 0.150005
15 1 14.594585 6.128504 7.613632 -0.215768 0.057220 0.240311
16 1 12.670032 5.377646 8.963444 -0.145533 -0.184522 0.120723
17 1 12.792543 6.743915 10.097605 0.402570 -0.207946 -0.053854
18 1 12.530668 8.269019 8.116006 0.586052 1.314845 -0.162344
19 1 12.022877 6.941091 7.183414 0.242699 -0.571333 -1.179543
20 1 10.126709 6.673425 8.939662 -0.648475 -1.051640 0.596819
21 1 10.603452 8.344647 9.405919 -0.402948 -0.586373 -0.187774
22 1 9.986937 9.172885 7.181274 0.148196 -0.603607 0.126004
23 1 9.573519 6.238162 6.482366 -0.300778 -0.986455 0.183558
24 1 10.428752 7.478580 5.654448 -0.412868 -0.008992 -0.380871
25 1 8.298366 7.127023 4.480668 -0.831695 -0.196531 0.467994
26 1 8.099741 8.706494 5.234193 0.258751 -0.849145 0.378886
27 1 6.074857 7.509611 6.103423 0.164169 0.049821 -0.107892
28 1 7.032871 6.124804 6.536546 0.134064 -0.129329 0.235613
29 2 6.287619 8.244819 8.463910 0.503342 -0.841743 -0.675361
30 2 8.441178 8.373372 8.193063 0.174752 -0.021120 -0.056887
Energy
-170.088285210000
PlusStress: xx yy zz yz xz xy
0.000020 0.000709 0.000635 0.000139 0.000341 -0.000536
Feature EFS_by vasp
Feature from database:p.cfg
Feature mindist 2.70
END_CFG

BEGIN_CFG
Size
30
Supercell
21.750000 0.000000 0.000000
0.000000 14.250000 0.000000
0.000000 0.000000 15.500000
AtomData: id type cartes_x cartes_y cartes_z fx fy fz
1 0 15.249388 5.439664 9.502711 1.672912 0.897007 0.012121
2 0 14.518448 6.610090 8.799137 -0.558485 -0.071927 0.784444
3 0 13.009602 6.761270 9.254181 0.194998 -0.013382 -1.706896
4 0 12.230525 7.451418 8.092678 0.035653 0.490089 -0.932286
5 0 10.721882 7.525033 8.455237 0.399744 -0.348802 1.091476
6 0 9.643604 8.103498 7.529426 -0.059994 -2.204731 0.507328
7 0 9.560183 7.180994 6.323275 0.447325 -0.060894 1.532900
8 0 8.359927 7.589550 5.509660 0.266827 -1.068648 -0.635282
9 0 7.007751 7.494332 6.239950 0.490564 0.298990 0.382691
10 0 7.107401 7.981081 7.719471 0.395283 -0.685972 -1.033231
11 1 14.713325 4.529117 9.314802 -0.403218 -0.807501 -0.272394
12 1 16.329025 5.291563 9.131283 -1.309265 0.249827 0.281002
13 1 15.337999 5.511147 10.608215 -0.177462 0.318851 -0.299382
14 1 14.995997 7.617382 8.887667 0.035975 -0.569816 0.342730
15 1 14.554281 6.421052 7.714610 -0.202635 -0.163225 -0.029025
16 1 12.468077 5.792430 9.399632 0.682290 0.209031 0.156350
17 1 12.895586 7.358905 10.164777 0.158322 -0.021804 0.223613
18 1 12.661646 8.505936 7.908533 -0.511737 -1.263412 0.050040
19 1 12.392166 6.821011 7.156979 -0.044087 0.713656 0.744048
20 1 10.460772 6.483726 8.816292 -0.251992 0.824322 -0.450539
21 1 10.765608 8.135301 9.344877 -0.449048 0.385300 0.851591
22 1 9.822828 9.138750 7.313109 0.338488 0.836269 -0.515213
23 1 9.584479 6.126966 6.731804 -0.659802 0.603663 -0.386757
24 1 10.587293 7.245043 5.919290 -0.453568 0.259102 -0.942003
25 1 8.402297 7.024220 4.583701 -0.543324 -0.379562 -0.506573
26 1 8.524588 8.598925 5.190986 0.075283 1.102139 -0.200668
27 1 6.302160 8.199085 5.781922 -0.100459 0.045609 -0.087986
28 1 6.507948 6.501100 6.130634 0.435289 0.349228 0.500683
29 2 6.130487 8.225197 8.391582 -0.275443 0.035764 0.278538
30 2 8.350648 8.132403 8.273569 0.352517 0.035309 0.282790
Energy
-169.885696500000
PlusStress: xx yy zz yz xz xy
0.002243 0.001407 0.000269 -0.000152 -0.000165 -0.000284
Feature EFS_by vasp
Feature from database:p.cfg
Feature mindist 2.70
END_CFG

BEGIN_CFG
Size
30
Supercell
21.750000 0.000000 0.000000
0.000000 14.250000 0.000000
0.000000 0.000000 15.500000
AtomData: id type cartes_x cartes_y cartes_z fx fy fz
1 0 14.879067 5.273535 9.419889 -1.193005 -0.333806 0.072143
2 0 14.566644 6.639380 8.812569 -1.127774 -0.067279 -0.672133
3 0 13.153677 7.087527 9.253212 -1.359718 0.371713 -0.500477
4 0 12.085490 7.559526 8.169897 0.683146 0.890006 1.386968
5 0 10.626145 7.475367 8.656655 1.264780 -0.279729 1.281611
6 0 9.640068 7.775930 7.594422 -1.098811 2.143698 -0.344399
7 0 9.514811 6.970252 6.259281 1.905138 1.046298 2.352228
8 0 8.526516 7.659345 5.407749 0.410921 0.970991 -1.093602
9 0 7.224554 7.824847 6.160970 -0.998346 0.195357 -0.585732
10 0 7.189567 8.121682 7.643899 0.769961 -0.964717 1.582230
11 1 14.271464 4.430510 8.952737 0.444701 0.926072 0.518163
12 1 15.900457 5.001442 9.346851 1.432370 -0.340967 -0.390018
13 1 14.687271 5.298499 10.508111 -0.224232 -0.098639 -0.119748
14 1 15.347378 7.385854 8.990424 0.038173 0.096404 0.363434
15 1 14.492207 6.582490 7.714266 0.344444 -0.261755 -0.117476
16 1 12.611494 6.238099 9.654833 0.219236 -0.656634 0.703692
17 1 13.148804 7.871404 10.045352 0.167019 -0.352265 -0.225019
18 1 12.303825 8.611331 8.068473 0.053979 0.893871 -0.597023
19 1 12.175217 7.139973 7.180063 0.422719 -0.707460 -0.440110
20 1 10.461527 6.484086 9.079256 -0.209642 -0.530568 0.122492
21 1 10.463022 8.187416 9.536885 0.112228 -0.626151 -1.022114
22 1 9.909527 8.856524 7.273185 -0.476600 -1.115699 0.069775
23 1 9.390877 5.918565 6.396596 -0.722412 -1.092434 0.373399
24 1 10.562203 7.033917 5.957605 0.200998 0.125357 -0.931337
25 1 8.397721 7.069783 4.464178 -0.241384 0.575389 0.351282
26 1 8.930364 8.696338 5.141584 -0.386280 -1.081819 0.057937
27 1 6.557426 8.483477 5.568026 -0.040496 -0.068237 0.553613
28 1 6.707257 6.861798 6.221952 -0.240728 -0.389724 -0.387323
29 2 6.184072 8.201952 8.328595 -0.292311 0.641350 -0.742021
30 2 8.360445 7.914515 8.371896 0.131547 0.097724 -1.609332
Energy
-169.586889390000
PlusStress: xx yy zz yz xz xy
0.000066 0.000675 0.001251 0.000667 0.000052 0.000352
Feature EFS_by vasp
Feature from database:p.cfg
Feature mindist 2.70
END_CFG

BEGIN_CFG
Size
30
Supercell
21.750000 0.000000 0.000000
0.000000 14.250000 0.000000
0.000000 0.000000 15.500000
AtomData: id type cartes_x cartes_y cartes_z fx fy fz
1 0 14.706488 5.236204 9.321335 1.429695 -1.386569 -1.490283
2 0 14.444498 6.626039 8.851651 -0.315697 1.108840 -0.066907
3 0 13.123892 7.242948 9.387934 -0.158932 -1.133592 0.224024
4 0 12.130308 7.538678 8.293282 -0.214455 1.200902 -1.388938
5 0 10.661066 7.287985 8.689535 1.107244 -1.247591 -0.819512
6 0 9.651000 7.803375 7.716040 -0.434656 -0.985545 -0.666187
7 0 9.515613 6.970550 6.429272 1.164937 0.142283 0.007539
8 0 8.594764 7.715151 5.387413 0.369686 -1.418240 1.607310
9 0 7.252370 8.059098 6.024124 0.200691 -1.626830 0.425686
10 0 7.266910 8.090389 7.526410 -0.507187 -0.097266 2.501970
11 1 13.845238 4.630286 9.055530 -0.548039 -0.389636 0.322694
12 1 15.510873 4.771027 8.652428 -0.466119 0.457647 0.879011
13 1 15.004438 5.065200 10.355377 -0.115555 0.213820 0.312098
14 1 15.262738 7.341204 9.077231 0.006008 -0.371935 -0.041701
15 1 14.370161 6.586828 7.741104 0.108221 0.112053 0.324503
16 1 12.515873 6.570524 10.034598 0.921113 -0.261347 0.252813
17 1 13.387914 8.093263 10.005998 -0.241416 0.594078 0.206743
18 1 12.262598 8.606599 7.979637 -0.315425 -0.288752 0.070793
19 1 12.428196 6.991589 7.369743 -0.318186 -0.111519 0.332907
20 1 10.477540 6.200731 8.859148 0.181061 0.183709 -0.225094
21 1 10.559190 7.696336 9.657164 -0.595487 0.993658 1.387796
22 1 9.831647 8.847763 7.508933 0.365907 0.790997 -0.363945
23 1 9.282081 5.911366 6.772006 -0.452991 0.976764 -0.600290
24 1 10.529340 6.864434 5.977996 -0.309091 0.111760 -0.033760
25 1 8.505689 7.014731 4.571319 -0.287330 0.015202 -0.846745
26 1 9.142839 8.590433 5.097502 0.360021 0.704725 -0.465008
27 1 6.696216 8.921104 5.659887 0.049975 0.234480 -0.204209
28 1 6.568475 7.165580 5.939507 0.265328 0.606864 -0.429344
29 2 6.235705 8.263936 8.156285 -0.174123 0.280461 -0.355385
30 2 8.362138 7.732792 8.344276 -1.084656 0.594838 -0.857504
Energy
-169.725351820000
PlusStress: xx yy zz yz xz xy
0.000318 0.000415 0.000322 -0.000222 0.000288 0.000207
Feature EFS_by vasp
Feature from database:p.cfg
Feature mindist 2.70
END_CFG

BEGIN_CFG
Size
30
Supercell
21.750000 0.000000 0.000000
0.000000 14.250000 0.000000
0.000000 0.000000 15.500000
AtomData: id type cartes_x cartes_y cartes_z fx fy fz
1 0 14.636725 5.111240 9.165304 -0.312918 0.799620 0.499128
2 0 14.523032 6.689177 8.981286 -1.059656 -1.746204 0.496333
3 0 13.178241 7.219474 9.529686 -0.650924 1.901840 -0.763213
4 0 12.059083 7.385725 8.353377 2.118328 -0.276107 0.084949
5 0 10.605539 7.224300 8.773367 0.001561 1.112542 1.383703
6 0 9.664534 7.752735 7.675889 -0.395141 1.020871 1.829032
7 0 9.685259 7.000421 6.403336 -0.654927 1.104258 -0.104035
8 0 8.677545 7.721704 5.463960 1.249541 -0.428252 -1.177586
9 0 7.299431 8.140709 5.983472 1.127511 0.616770 1.246537
10 0 7.182824 8.069128 7.502028 0.328617 0.256885 -0.308380
11 1 13.778254 4.487772 8.803669 0.153000 0.747823 0.245856
12 1 15.487500 4.728902 8.621066 0.698601 -0.189851 -0.221235
13 1 14.795134 4.894878 10.257959 -0.167663 0.046461 -0.732302
14 1 15.411103 7.163243 9.439718 -0.288267 -0.066899 -0.025324
15 1 14.478105 6.964461 7.926113 0.500108 -0.087687 -0.391462
16 1 12.734911 6.725692 10.402424 0.196114 -0.550167 -0.032865
17 1 13.388581 8.263836 9.903468 -0.354742 -0.552176 -0.202082
18 1 12.354017 8.332569 7.804431 -0.711283 -0.487668 0.539089
19 1 12.253856 6.590565 7.594468 0.135642 0.156391 0.283764
20 1 10.487298 6.144878 8.975180 -0.453684 0.085392 -0.124226
21 1 10.431123 7.741995 9.801232 -0.008069 -0.484751 -1.572543
22 1 9.808375 8.843043 7.526548 0.757105 -0.227906 -0.166224
23 1 9.505020 5.973791 6.662775 -0.573377 -0.996419 -0.198772
24 1 10.688976 7.034388 5.957118 -0.028453 0.101947 -0.095036
25 1 8.646097 7.048465 4.582741 -0.369972 0.621537 -0.159975
26 1 9.225716 8.670328 5.196265 -0.382659 -0.753294 -0.229712
27 1 7.181571 9.237495 5.822774 -0.153918 -0.438000 -0.239440
28 1 6.417464 7.659066 5.589801 -0.268298 -0.417587 -0.421946
29 2 6.135282 8.329785 8.050298 -0.683994 -0.114122 0.533921
30 2 8.282717 7.819200 8.262050 0.247870 -0.752956 0.046287
Energy
-169.732329910000
PlusStress: xx yy zz yz xz xy
0.001205 0.001718 0.000868 -0.000181 0.000666 -0.000230
Feature EFS_by vasp
Feature from database:p.cfg
Feature mindist 2.70
END_CFG

BEGIN_CFG
Size
30
Supercell
21.750000 0.000000 0.000000
0.000000 14.250000 0.000000
0.000000 0.000000 15.500000
AtomData: id type cartes_x cartes_y cartes_z fx fy fz
1 0 14.543253 5.213474 8.960241 -0.030092 -0.813676 -1.174604
2 0 14.475866 6.693097 9.220321 -0.161940 1.007932 -0.175563
3 0 13.002130 7.156139 9.495205 0.440986 -1.620189 0.749246
4 0 12.019918 7.070997 8.356451 -0.527668 -0.546174 0.687990
5 0 10.556199 7.351244 8.803358 1.001542 -1.513443 -1.323120
6 0 9.651900 7.788733 7.691831 -0.486342 0.879709 -0.335174
7 0 9.607024 6.961711 6.379269 0.438895 0.101564 0.924826
8 0 8.846661 7.850083 5.407197 0.324127 -1.224061 -0.308022
9 0 7.491992 8.078825 6.007466 -1.636044 0.613582 -0.662161
10 0 7.280078 8.079709 7.497435 -0.481870 0.496080 1.110596
11 1 13.976530 4.958653 8.038259 0.252715 0.071016 0.065724
12 1 15.544556 4.708582 8.839956 -0.624838 0.704304 0.351805
13 1 13.961419 4.750335 9.740770 -0.041565 -0.757679 0.700666
14 1 15.036449 6.918513 10.139110 0.188008 0.150882 -0.042523
15 1 14.953347 7.258263 8.380102 -0.286722 -0.052338 0.421268
16 1 12.615695 6.452562 10.260584 0.159182 0.011107 0.205961
17 1 12.945562 8.112786 9.991858 0.216956 0.838379 0.056555
18 1 12.391497 7.772095 7.650951 -0.019873 0.958765 -1.354173
19 1 12.078282 6.069708 7.916013 -0.011196 -0.074245 -0.242053
20 1 10.107970 6.438932 9.238421 0.189454 0.072011 0.108780
21 1 10.572776 8.099411 9.543114 -0.143191 1.186607 1.271429
22 1 9.845561 8.856247 7.382388 0.615768 -0.653074 0.104575
23 1 9.122180 5.932294 6.516220 0.707697 1.097081 -0.117474
24 1 10.684250 6.909943 6.124722 -0.318319 -0.548868 -0.295373
25 1 8.773746 7.406457 4.398438 -0.065685 0.006655 0.110692
26 1 9.383512 8.793798 5.287487 0.163359 0.205090 -0.003137
27 1 7.183464 9.096891 5.721918 -0.322929 0.070730 -0.001928
28 1 6.659622 7.443715 5.602604 0.664757 0.152493 0.140869
29 2 6.172783 8.290026 7.982610 0.488771 -0.311027 -0.242302
30 2 8.350427 7.944844 8.345373 -0.698760 -0.507008 -0.710291
Energy
-170.052931640000
PlusStress: xx yy zz yz xz xy
0.000673 0.000406 -0.000036 0.000155 -0.000308 0.000180
Feature EFS_by vasp
Feature from database:p.cfg
Feature mindist 2.70
END_CFG

BEGIN_CFG
Size
30
Supercell
21.750000 0.000000 0.000000
0.000000 14.250000 0.000000
0.000000 0.000000 15.500000
AtomData: id type cartes_x cartes_y cartes_z fx fy fz
1 0 14.574096 5.274680 8.682312 -0.057601 -0.409080 0.754643
2 0 14.389488 6.573478 9.503115 0.690761 -0.651893 -0.303698
3 0 12.976241 7.010946 9.715361 -1.997489 0.057684 0.474594
4 0 11.981920 6.892773 8.492209 0.763077 0.740099 -0.234014
5 0 10.506528 7.270742 8.814113 0.856404 1.438945 1.118989
6 0 9.745948 7.967991 7.715232 -1.209276 -0.964671 -1.275355
7 0 9.624326 7.116704 6.418592 1.196099 0.794705 0.050167
8 0 8.827037 7.790561 5.322032 -0.252569 1.470287 0.196205
9 0 7.406787 8.034161 5.906609 0.268660 -0.537314 -0.873750
10 0 7.289498 8.203616 7.382796 1.389430 -0.219351 1.321821
11 1 14.412259 5.379010 7.609089 -0.115222 0.275431 -0.251963
12 1 15.626612 5.007867 8.828854 0.109086 -0.411310 -0.176843
13 1 13.935155 4.402721 9.009403 0.449906 0.722216 0.019388
14 1 14.856231 6.415692 10.501051 -0.116361 0.068449 -0.275665
15 1 15.001333 7.344068 9.023057 0.060281 0.283881 -0.185698
16 1 12.585323 6.333874 10.521381 -0.137941 0.396902 -0.329906
17 1 12.916679 8.048417 10.149653 0.072555 -0.577192 -0.339998
18 1 12.420505 7.545309 7.634508 -0.722944 -0.939469 0.999216
19 1 11.951157 5.835155 8.176155 0.360146 0.221057 -0.288827
20 1 9.906345 6.392412 9.089149 0.155922 -0.022854 0.308378
21 1 10.507007 8.038698 9.673036 -0.120509 -1.160463 -0.673779
22 1 10.094103 8.982922 7.547693 0.606735 0.374240 -0.383658
23 1 9.095524 6.215681 6.685922 0.053219 -0.929277 0.328395
24 1 10.665183 6.917120 6.117670 -0.159474 -0.370361 -0.251550
25 1 8.777732 7.292140 4.338212 -0.042298 -0.443810 0.383127
26 1 9.340856 8.738578 5.071286 -0.217208 0.158391 0.137094
27 1 6.750948 8.757704 5.396110 0.353714 0.220448 0.045794
28 1 6.855211 7.095110 5.771803 -0.177326 -0.288394 -0.118869
29 2 6.249745 8.264291 7.979656 -1.766708 0.424111 0.087376
30 2 8.397075 8.129217 8.224842 -0.312812 0.296764 -0.245801
Energy
-170.042290980000
PlusStress: xx yy zz yz xz xy
0.000347 0.000837 0.001277 0.000280 0.000639 0.000521
Feature EFS_by vasp
Feature from database:p.cfg
Feature mindist 2.70
END_CFG

BEGIN_CFG
Size
30
Supercell
21.750000 0.000000 0.000000
0.000000 14.250000 0.000000
0.000000 0.000000 15.500000
AtomData: id type cartes_x cartes_y cartes_z fx fy fz
1 0 14.640247 5.365111 8.562773 -0.438315 0.946062 -0.973228
2 0 14.287069 6.464637 9.573560 -0.049408 0.360359 0.268429
3 0 12.762480 6.623830 9.914337 1.535363 0.026997 -1.085800
4 0 12.045849 7.046474 8.646533 -1.326420 -1.535269 0.270370
5 0 10.533478 7.203644 8.878258 -0.683067 0.148166 -2.412164
6 0 9.787324 7.912253 7.640560 0.706071 0.996508 0.829475
7 0 9.840746 7.156598 6.351658 -1.640368 0.022368 -0.349691
8 0 8.782001 7.796532 5.406467 0.740166 -0.050233 -1.639812
9 0 7.346164 7.843881 5.900585 -0.066631 -0.424731 0.368745
10 0 7.272284 8.307660 7.347169 -1.204051 -1.678806 0.562633
11 1 14.186670 5.570146 7.535610 0.610945 -0.255394 0.982124
12 1 15.730156 5.234521 8.454754 -0.143954 0.112725 -0.054287
13 1 14.228952 4.433883 8.921083 -0.234716 -0.737283 0.108217
14 1 14.840729 6.254642 10.489377 0.091722 -0.192170 0.460546
15 1 14.697460 7.461746 9.271740 -0.324702 -0.409117 -0.150996
16 1 12.329499 5.688956 10.271942 -0.006292 -0.350453 0.215044
17 1 12.678277 7.365738 10.694635 -0.197885 0.462532 0.531406
18 1 12.443165 7.948653 8.241877 0.588011 1.026105 -0.415414
19 1 12.232480 6.219544 7.934691 -0.161634 0.371781 -0.226012
20 1 10.044224 6.223349 9.062443 0.106038 0.319859 0.021165
21 1 10.399041 7.843910 9.708454 -0.418181 0.769420 1.316206
22 1 10.184975 8.947458 7.430006 0.670690 -0.832852 0.311302
23 1 9.607930 6.065914 6.459328 0.345190 0.497031 0.066248
24 1 10.840837 7.334426 5.951586 0.175350 -0.412971 -0.291139
25 1 8.781945 7.222963 4.465416 0.040206 -0.114311 -0.067209
26 1 9.137528 8.787200 5.056404 -0.082070 0.042584 0.431734
27 1 6.617578 8.405282 5.279418 0.553876 0.217355 0.109630
28 1 6.922745 6.808275 5.827441 0.157654 0.388709 0.520426
29 2 6.209479 8.414927 7.971688 1.092952 0.596966 -0.745246
30 2 8.442652 8.348008 8.035965 -0.436431 -0.309560 1.050360
Energy
-170.016911530000
PlusStress: xx yy zz yz xz xy
0.001501 0.000970 0.000338 -0.000462 0.000479 -0.000392
Feature EFS_by vasp
Feature from database:p.cfg
Feature mindist 2.70
END_CFG

BEGIN_CFG
Size
30
Supercell
21.750000 0.000000 0.000000
0.000000 14.250000 0.000000
0.000000 0.000000 15.500000
AtomData: id type cartes_x cartes_y cartes_z fx fy fz
1 0 14.756736 5.460271 8.537640 0.520651 -0.201352 2.493865
2 0 14.068144 6.316290 9.701603 0.958135 -1.307779 0.497541
3 0 12.516338 6.223086 9.733338 1.210313 0.862716 -0.523239
4 0 11.987244 7.291352 8.710913 0.672487 0.091932 1.368913
5 0 10.485034 7.357976 8.756536 -0.073203 0.008171 1.844400
6 0 9.790660 7.985657 7.629055 0.788874 1.676442 -0.731318
7 0 9.779227 7.174617 6.352684 0.683819 -0.388904 -0.964152
8 0 8.826883 7.789961 5.350569 0.412078 0.133584 -0.175014
9 0 7.514143 7.646875 6.018726 -1.122274 -0.448769 0.587659
10 0 7.391364 8.238401 7.426360 0.213578 0.147392 -1.424714
11 1 14.283173 5.601409 7.601618 -0.608973 0.270133 -1.280303
12 1 15.863864 5.661712 8.425295 -0.950417 -0.064191 0.198461
13 1 14.633152 4.379207 8.835882 0.178806 0.691926 -0.394242
14 1 14.488152 5.935272 10.675092 -0.264681 0.000925 -0.577156
15 1 14.413165 7.354113 9.706780 -0.092411 0.323680 -0.349418
16 1 12.277652 5.180415 9.435772 -0.409295 0.344970 0.088350
17 1 12.136515 6.418818 10.771232 0.108466 -0.102622 -0.681984
18 1 12.483652 8.280605 8.956833 -0.547509 -0.678715 -0.096651
19 1 12.373237 7.033499 7.724678 -0.055550 -0.182277 -0.417894
20 1 10.140052 6.326035 8.819521 -0.368300 -0.445474 0.169377
21 1 10.066393 7.888672 9.685103 0.897287 -0.674731 -0.781192
22 1 10.250808 9.002141 7.417387 -0.080680 -0.736614 -0.071908
23 1 9.425963 6.123081 6.517187 0.462172 0.428260 0.151538
24 1 10.790138 7.147389 5.851350 -0.438816 -0.073691 0.912112