BEGIN_CFG
Size
90
Supercell
28.250000 0.000000 0.000000
0.000000 25.250000 0.000000
0.000000 0.000000 15.250000
AtomData: id type cartes_x cartes_y cartes_z fx fy fz
1 0 5.677758 11.320159 7.609971 -0.305628 -0.034317 0.414556
2 0 5.956059 10.389170 6.475329 0.855466 0.127015 -1.981157
3 0 7.080120 10.819942 5.526621 1.752007 -0.190372 0.114709
4 0 8.401919 10.859069 6.370886 -0.434059 1.055185 1.057975
5 0 9.672267 11.237831 5.602377 -1.298212 1.095219 -0.646477
6 0 10.953399 11.304814 6.389109 -0.045328 0.921554 1.387414
7 0 12.209719 11.939610 5.736373 -0.545520 -0.000131 0.713746
8 0 12.297368 13.384259 5.214092 -2.092668 -0.376079 -0.199354
9 0 11.874031 14.528040 6.209804 3.471971 -0.428540 -0.106072
10 0 12.694811 14.456007 7.568194 -1.417084 -0.993504 2.613829
11 0 14.726876 15.640154 6.567454 -0.926381 -1.545108 0.128803
12 0 14.863209 17.093112 7.012252 -0.195128 0.344912 0.685348
13 0 13.568493 17.929634 7.202872 0.455648 -0.119221 -1.320851
14 0 13.827254 19.407234 7.443214 -0.740640 1.364347 1.671528
15 0 14.422118 19.816321 8.819790 0.020428 -0.456575 -0.114317
16 0 14.221433 21.241567 9.328935 0.346621 0.413665 0.336197
17 0 16.011926 14.847083 6.267000 0.039323 1.689439 -1.310939
18 0 17.001494 14.796342 7.423239 0.312986 0.662116 -0.119649
19 0 17.645812 13.412732 7.499294 1.308868 -1.239538 0.046741
20 0 18.005975 12.900720 8.902755 -0.965218 2.191634 1.672247
21 0 16.878685 10.655356 8.593084 0.232929 -0.318633 2.249965
22 0 17.627597 9.402061 9.048477 0.828702 -1.985799 -0.695525
23 0 19.147109 9.284687 8.658985 0.531517 0.799163 -0.213402
24 0 19.995918 8.132749 9.285069 -0.785716 -0.700225 -0.094664
25 0 21.515760 8.359431 9.395058 -0.198951 -0.610411 0.149690
26 0 22.206240 7.177810 10.122674 -0.632812 0.414419 -0.557713
27 0 15.407503 10.704457 9.088832 0.790452 -0.120378 0.243060
28 0 14.534759 9.927000 8.124222 -0.247228 -0.258144 1.485956
29 0 13.020545 10.092802 8.418955 1.147709 1.911114 -2.302939
30 0 12.301911 9.376322 7.314370 -1.746170 -1.106383 0.500524
31 1 5.639859 12.368883 7.353001 0.366696 0.661782 -0.529821
32 1 4.654136 11.100664 7.792390 -1.305877 -0.129444 1.143413
33 1 6.252109 11.238321 8.535673 0.206050 -0.301824 -0.006786
34 1 6.237834 9.373403 6.749712 -0.232491 -0.361607 0.594148
35 1 5.061638 10.304130 5.848159 -0.341669 -0.112255 0.051944
36 1 6.952832 11.851051 5.125984 -0.332002 -0.450671 -0.202745
37 1 7.233321 10.052044 4.677331 -0.340777 1.102471 0.896761
38 1 8.308196 11.630708 7.230527 -0.133453 -0.800887 -1.094693
39 1 8.429362 9.909699 6.905265 0.548772 -0.497814 0.020351
40 1 9.822492 10.507385 4.811142 0.087932 -0.085147 -0.635624
41 1 9.367296 12.240081 5.156580 0.814349 -0.748793 0.085101
42 1 10.731673 11.724201 7.398263 0.189266 0.451983 -0.343102
43 1 12.427975 11.239435 4.950382 0.399764 -0.346294 -0.959534
44 1 13.013059 11.803931 6.471740 0.133643 0.060615 0.096096
45 1 11.623881 13.527158 4.320657 0.226476 -0.236895 0.571869
46 1 13.276117 13.425844 4.770117 0.947006 0.669756 0.049517
47 1 12.024133 15.465958 5.626884 -0.232877 -0.140330 0.690117
48 1 10.879432 14.374574 6.487487 -1.865671 -0.043843 0.439136
49 1 14.076621 15.489890 5.691015 0.061146 0.522570 -0.035745
50 1 15.402190 17.119634 7.993575 -0.128764 -0.096019 -0.480109
51 1 15.476173 17.678917 6.312438 0.310797 -0.368235 -0.254703
52 1 12.942256 18.014862 6.293151 0.215709 -0.849197 -0.232974
53 1 12.955709 17.417579 7.932840 -0.422332 0.220743 0.730028
54 1 14.470825 19.900718 6.708993 0.201043 -0.382900 -0.561776
55 1 12.860287 19.947017 7.325452 0.085546 -0.220363 0.079136
56 1 13.951996 19.233632 9.648425 0.561509 -0.404256 -0.525704
57 1 15.508454 19.605003 8.723227 -0.244801 -0.113788 0.546724
58 1 13.242112 21.331117 9.796921 -0.460283 0.028662 0.085901
59 1 14.277843 22.088494 8.618730 0.351767 -0.334731 -0.086886
60 1 14.949137 21.392936 10.164118 -0.266644 0.228043 -0.482691
61 1 16.414016 15.395537 5.351428 -0.011033 -0.544798 0.749587
62 1 15.784761 13.842635 5.893964 -0.381825 -0.091780 0.073811
63 1 16.385470 15.080486 8.295504 0.669348 -0.369423 0.325448
64 1 17.809849 15.565385 7.273065 -0.685904 -0.449240 0.391584
65 1 17.028440 12.666423 6.964802 0.184091 0.198112 0.012869
66 1 18.660008 13.435600 6.995702 -0.854073 -0.047764 0.031371
67 1 16.894008 10.834171 7.508886 0.318818 -0.016422 0.011038
68 1 17.099524 8.479599 8.646523 0.389336 0.719978 0.182902
69 1 17.626035 9.243049 10.138765 -0.521559 0.570267 0.096287
70 1 19.215546 9.118058 7.600966 -0.192148 -0.208372 -1.174079
71 1 19.701008 10.272525 8.715707 -0.595351 -0.641900 0.684110
72 1 19.879102 7.216178 8.640851 -0.192208 0.447621 0.386244
73 1 19.557270 7.826312 10.274154 0.396848 0.333085 -0.337211
74 1 21.677299 9.300944 9.912610 0.293677 0.403726 0.197743
75 1 21.953067 8.409384 8.391896 -0.001456 0.419170 -0.208227
76 1 21.502659 6.806026 10.843962 -0.318316 -0.262491 1.019278
77 1 22.345986 6.332742 9.454731 0.222941 -0.262675 -0.472778
78 1 23.156470 7.398469 10.600095 0.282373 0.257614 0.113074
79 1 15.285057 10.489365 10.184213 0.330189 -0.593664 -0.694034
80 1 15.157221 11.750900 9.095268 -0.448031 0.962351 -0.417380
81 1 14.831305 8.860781 8.114864 -0.358758 0.124219 0.081350
82 1 14.781756 10.293687 7.150004 -0.049783 0.377536 -1.148999
83 1 12.772876 9.556528 9.277101 -0.514009 -0.867434 1.892344
84 1 12.755484 11.184604 8.530566 0.133994 -0.848660 -0.015696
85 2 18.472273 13.729672 9.717278 -0.213327 -1.822164 -1.165608
86 2 17.593610 11.675970 9.375224 0.598821 1.233380 -0.771964
87 2 12.205651 13.983716 8.660824 0.760833 1.078059 -3.502076
88 2 13.991377 14.810266 7.669564 0.578737 1.147533 -1.062511
89 2 12.466205 8.164404 7.199529 0.133605 0.564908 -0.499981
90 2 11.218704 9.919382 6.639288 1.130566 -1.260803 -0.181626
Energy
-508.890324890000
PlusStress: xx yy zz yz xz xy
0.001229 0.001596 0.001278 -0.000080 0.000115 -0.000166
Feature EFS_by vasp
Feature from database:p.cfg
Feature mindist 2.70
END_CFG

BEGIN_CFG
Size
90
Supercell
28.250000 0.000000 0.000000
0.000000 25.250000 0.000000
0.000000 0.000000 15.250000
AtomData: id type cartes_x cartes_y cartes_z fx fy fz
1 0 5.714960 11.087012 7.757263 -0.582781 0.931884 0.847109
2 0 5.883311 10.581054 6.323550 0.546632 -1.116162 -1.041314
3 0 7.094376 11.149423 5.532669 0.846109 0.322420 0.645424
4 0 8.494654 10.853369 6.107050 -0.165409 -1.009603 0.438178
5 0 9.746788 11.441222 5.427044 0.061662 -1.689792 0.328204
6 0 10.984189 11.323075 6.346951 1.007505 0.339114 -0.155260
7 0 12.252328 11.947544 5.725532 -0.474742 -0.297758 -0.709409
8 0 12.146363 13.421645 5.278904 1.833333 -0.506722 -0.258473
9 0 11.868191 14.555013 6.295597 -1.267788 0.422946 0.757415
10 0 12.644170 14.511545 7.604205 1.989753 -0.648161 -2.804102
11 0 14.697338 15.641663 6.442917 0.212658 -1.960512 0.452273
12 0 14.975742 17.068939 6.948084 -1.214311 -0.340971 -1.498006
13 0 13.648590 17.811447 7.261367 0.371196 0.132953 0.412042
14 0 13.848277 19.326237 7.522533 0.481563 -0.036761 -0.131453
15 0 14.664028 19.607275 8.790494 -1.294025 0.259160 0.445936
16 0 14.271786 21.027367 9.230335 -0.392177 0.269671 -0.845784
17 0 16.051810 14.814192 6.114711 -1.314156 0.406801 2.135594
18 0 16.690260 14.533414 7.550549 0.425891 -0.746493 -1.998933
19 0 17.675738 13.312158 7.548211 -2.475659 -1.215697 0.178248
20 0 17.926824 13.027707 9.003950 -1.292327 -1.683542 -0.679168
21 0 16.969793 10.667354 8.795571 -0.089601 0.302499 -0.241783
22 0 17.749119 9.439086 9.111387 0.070460 -0.575411 0.551105
23 0 19.219451 9.509765 8.779000 0.309386 -0.645209 -1.322051
24 0 19.889784 8.237418 9.348962 0.371195 0.961331 -0.866288
25 0 21.420871 8.310030 9.330013 -0.033658 0.244592 0.196037
26 0 22.140198 7.220363 10.159803 -0.139607 -0.065387 -0.222285
27 0 15.475633 10.641872 9.086869 -0.541622 2.756908 1.436211
28 0 14.526464 9.806335 8.277345 0.608669 -1.026796 -1.557712
29 0 13.021702 10.146979 8.371060 -0.193638 -1.981619 0.819365
30 0 12.238301 9.271978 7.292743 -0.487906 1.795072 0.818297
31 1 5.607749 12.231883 7.758099 -0.024484 -1.254386 0.013194
32 1 4.820753 10.658397 8.353303 1.113648 0.487080 -1.044922
33 1 6.629024 10.893097 8.387304 -0.598445 -0.052928 -0.532483
34 1 5.933158 9.441338 6.263750 0.145560 0.973552 0.381788
35 1 5.100034 10.793663 5.568938 -0.665212 0.219604 0.908561
36 1 7.011892 12.245620 5.428754 -0.250616 0.103569 0.099709
37 1 7.021340 10.767270 4.519358 0.034951 -0.272045 -0.532550
38 1 8.536895 11.209209 7.144600 -0.173536 0.190474 0.235970
39 1 8.586337 9.737252 6.228219 0.159159 0.622207 -0.269555
40 1 9.971879 10.929811 4.461435 -0.068802 0.111669 0.330124
41 1 9.578862 12.473576 5.189595 -0.076765 1.004984 -0.072939
42 1 10.808406 11.814180 7.333068 -0.134720 -0.261520 -0.256882
43 1 12.537976 11.360602 4.775377 -0.348832 0.504223 1.229520
44 1 13.069703 11.830176 6.464709 -0.085776 0.127695 -0.387284
45 1 11.504926 13.535327 4.404179 -0.568496 0.014357 0.013957
46 1 13.172822 13.500876 4.791676 -0.685784 0.740692 0.594062
47 1 12.171721 15.489976 5.825104 -0.564875 0.370853 -0.379797
48 1 10.763308 14.621439 6.633078 1.380881 -0.147228 -0.765678
49 1 13.947817 15.506600 5.652621 0.447807 0.676936 -0.356052
50 1 15.651635 16.964615 7.779126 0.241409 0.237608 0.802778
51 1 15.516521 17.637138 6.167705 0.041312 -0.243723 -0.088770
52 1 12.920524 17.686486 6.425748 0.293176 -0.168009 0.334721
53 1 13.288906 17.268926 8.179992 -0.354923 0.730795 -0.555019
54 1 14.337572 19.862521 6.679306 0.023059 -0.517981 -0.132816
55 1 12.923907 19.930584 7.642574 -0.199555 -0.825280 -0.104294
56 1 14.272490 18.900385 9.535327 0.185233 -0.116413 0.313956
57 1 15.738762 19.411237 8.695331 0.092181 0.251787 -0.082253
58 1 13.156474 21.151349 9.168428 0.589012 -0.272919 0.286233
59 1 14.628212 21.747537 8.469327 0.222347 0.091838 0.296995
60 1 14.571111 21.343351 10.222173 0.404456 0.070817 0.392940
61 1 16.677118 15.502670 5.570420 0.504068 0.376061 -0.494096
62 1 15.929510 13.894795 5.489042 -0.326055 0.461259 0.523944
63 1 15.856293 14.387701 8.255914 0.432778 -0.298115 -0.037787
64 1 17.251495 15.398377 7.858824 0.283973 0.607324 0.279573
65 1 17.133300 12.466881 7.048883 0.462434 0.505041 0.113280
66 1 18.634499 13.395588 7.080164 0.724491 0.631322 -0.661180
67 1 17.056713 10.824565 7.693171 0.299974 0.210854 0.425978
68 1 17.228666 8.636318 8.592894 0.061896 -0.569757 -0.466749
69 1 17.750375 9.092492 10.163289 -0.687703 0.632256 0.151339
70 1 19.354482 9.613295 7.647957 0.089330 -0.168171 1.043044
71 1 19.668399 10.397259 9.235126 0.038554 0.174616 0.126504
72 1 19.611959 7.400575 8.723008 -0.359937 -0.659741 -0.293267
73 1 19.402253 8.075404 10.307856 0.400806 -0.193653 0.707015
74 1 21.728126 9.338601 9.670425 0.031064 -0.646659 -0.335812
75 1 21.708890 8.172843 8.244643 0.031987 0.343766 0.839279
76 1 22.169009 7.393209 11.289798 -0.042206 -0.178804 -1.360515
77 1 21.665846 6.241357 9.917133 0.044147 0.253112 0.454972
78 1 23.147829 7.126692 9.717205 0.170125 0.047006 0.629817
79 1 15.341961 10.516488 10.183069 -0.018034 -0.399001 -0.180536
80 1 15.199373 11.755025 9.002929 0.004828 -1.033287 -0.197477
81 1 14.649865 8.752437 8.595712 0.035910 0.047619 -0.513947
82 1 14.847485 9.893340 7.149770 -0.497743 -0.301966 1.608741
83 1 12.542738 9.712253 9.352114 0.942897 0.955419 -1.275753
84 1 12.980907 11.241346 8.381312 -0.866779 0.023411 -0.263972
85 2 18.299677 13.966463 9.646378 0.875113 0.142210 2.032943
86 2 17.570561 11.753209 9.591686 0.428910 1.763266 -0.897075
87 2 12.320609 13.902565 8.567526 -2.069220 -1.314033 2.879711
88 2 13.965691 14.839087 7.603384 1.367740 1.774706 -1.291001
89 2 12.315142 8.063137 7.197824 0.492336 0.231215 0.123347
90 2 11.276621 9.900961 6.543083 -0.593194 -0.412204 -0.440481
Energy
-508.751475650000
PlusStress: xx yy zz yz xz xy
0.001538 0.001802 0.001758 0.000086 -0.000204 -0.000109
Feature EFS_by vasp
Feature from database:p.cfg
Feature mindist 2.70
END_CFG

BEGIN_CFG
Size
90
Supercell
28.250000 0.000000 0.000000
0.000000 25.250000 0.000000
0.000000 0.000000 15.250000
AtomData: id type cartes_x cartes_y cartes_z fx fy fz
1 0 5.884821 10.896608 7.633588 0.332023 0.292068 -0.251651
2 0 5.984679 10.806051 6.121617 1.354324 0.251932 -0.783610
3 0 7.342049 11.459686 5.665726 -0.131283 0.529598 0.554011
4 0 8.631819 10.782158 6.189431 -0.155272 0.427395 -0.978082
5 0 9.791125 11.613624 5.650034 -0.345910 1.191067 1.189224
6 0 11.113852 11.378246 6.349196 1.494606 -0.127120 -1.494571
7 0 12.256081 12.038832 5.486116 0.055319 0.456121 1.722359
8 0 12.019050 13.503156 5.063556 -1.036574 -1.171449 0.252520
9 0 11.700840 14.389142 6.273714 1.961072 1.613356 0.015312
10 0 12.751470 14.388165 7.479341 -1.534386 -1.475830 0.709691
11 0 14.663678 15.559870 6.333643 -0.438751 0.139479 0.204433
12 0 14.957602 16.987145 6.836678 0.918768 0.975939 -1.201124
13 0 13.661701 17.790675 7.169710 0.085094 -1.438270 0.568758
14 0 13.739259 19.245761 7.514140 1.603228 1.389346 1.021668
15 0 14.596518 19.547063 8.826944 -0.019390 -1.516125 -0.007047
16 0 14.575087 20.996498 9.292200 0.134069 -0.068137 0.353452
17 0 15.834258 14.584708 6.200824 1.232000 1.322739 -0.387805
18 0 16.516813 14.436363 7.569118 0.780064 1.421369 0.559483
19 0 17.626035 13.399648 7.640943 1.287523 -0.092528 -1.368617
20 0 17.961992 13.025457 9.054222 -1.464648 0.719987 0.663907
21 0 16.874050 10.692370 8.843500 -0.507826 -0.271569 0.582173
22 0 17.596297 9.403554 9.349974 0.124144 0.836532 0.174885
23 0 19.125470 9.551003 9.102033 -0.746916 0.471000 -0.245640
24 0 19.931236 8.345897 9.548988 -0.589874 -0.161616 0.117154
25 0 21.434169 8.238257 9.157063 -1.388846 -0.380649 0.581804
26 0 22.109378 7.232037 10.084294 0.560179 -0.217624 -1.604651
27 0 15.366184 10.716887 9.148088 0.358496 -1.456743 -0.195473
28 0 14.557124 9.793953 8.206630 -0.856542 -0.772164 2.341128
29 0 13.063016 10.147354 8.255149 1.048715 0.894374 -1.543377
30 0 12.294183 9.270869 7.355480 -2.658923 -1.463764 -2.019043
31 1 5.700248 11.902373 7.984180 -0.266099 0.641140 0.114450
32 1 5.158904 10.244013 8.050652 -1.246436 -0.663033 0.360281
33 1 6.799622 10.588191 8.138988 0.483283 -0.114879 -0.140569
34 1 5.905935 9.755612 5.814830 0.387550 -0.259175 -0.072388
35 1 5.192683 11.276071 5.528573 -0.408537 0.371686 0.427889
36 1 7.364803 12.520436 6.047458 -0.231266 -0.548974 0.192515
37 1 7.481780 11.690027 4.572221 -0.449683 -0.826834 0.409126
38 1 8.712983 10.609958 7.279044 -0.242134 0.325995 -0.202890
39 1 8.755279 9.807912 5.714207 -0.193498 -0.504543 0.065323
40 1 9.820712 11.525365 4.558396 0.333000 -0.257776 -0.165757
41 1 9.584357 12.738451 5.827666 0.059631 -1.344332 -0.161599
42 1 11.131330 11.869006 7.333022 -0.197059 -0.403976 0.224655
43 1 12.503140 11.400867 4.659196 0.009563 -0.492535 -0.756110
44 1 13.141658 12.060179 6.156339 0.083534 -0.146971 -0.296525
45 1 11.178917 13.528862 4.340510 -0.079123 0.147136 0.304296
46 1 12.851899 13.810308 4.453124 0.799809 0.517341 -0.062852
47 1 11.530041 15.439070 5.919523 0.247194 -0.390900 0.251475
48 1 10.813419 14.108457 6.793612 -0.948927 -0.467039 0.231795
49 1 14.038587 15.478223 5.434510 -0.008254 0.567053 -0.260960
50 1 15.676389 16.911945 7.708502 -0.855907 0.209026 -0.678793
51 1 15.506851 17.521190 6.020107 -0.042683 -0.160365 0.323848
52 1 12.896264 17.636309 6.371906 0.310253 -0.099587 0.310218
53 1 13.329982 17.299144 8.113934 -0.514433 0.068283 -0.497389
54 1 14.153297 19.893831 6.715619 0.098478 -0.283123 -0.111992
55 1 12.739838 19.645195 7.665946 -0.556913 0.005065 0.184636
56 1 14.282909 18.819876 9.650882 -0.124476 0.853017 -0.646868
57 1 15.635665 19.193726 8.658454 -0.080585 0.326747 -0.238195
58 1 13.562780 21.248778 9.592298 -0.520931 0.247021 0.159072
59 1 14.833159 21.673951 8.473918 0.183239 0.163215 -0.166381
60 1 15.225891 21.246101 10.170994 -0.214257 -0.423333 -0.585167
61 1 16.505985 15.049490 5.401908 -0.359737 -0.747096 0.748043
62 1 15.478503 13.604204 5.851837 -0.068257 0.031778 -0.155355
63 1 15.724971 14.161746 8.281144 0.151430 -0.053547 0.089406
64 1 16.928544 15.432804 7.942774 -0.436575 -0.982897 -0.431351
65 1 17.212782 12.571760 7.092588 -0.040031 -1.038392 -0.295105
66 1 18.573692 13.650584 7.058356 -0.902037 0.188524 0.667149
67 1 17.006735 10.749865 7.760366 0.274332 0.225147 -0.339013
68 1 17.102999 8.518277 8.874858 0.553056 0.407143 -0.115621
69 1 17.418331 9.264976 10.423898 -0.179937 0.185650 0.260141
70 1 19.134508 9.720531 8.022321 0.753754 0.211241 -0.432540
71 1 19.489685 10.478186 9.652865 -0.345244 -0.798184 -0.712516
72 1 19.416138 7.409656 9.177901 0.371570 0.561684 0.396462
73 1 19.732839 8.422627 10.644492 0.704023 -0.701087 -0.090460
74 1 21.949047 9.188719 9.123554 0.182465 0.680165 0.301708
75 1 21.446601 7.876801 8.128571 0.147700 -0.207319 -0.377457
76 1 22.155154 7.581931 11.100102 -0.096194 0.075375 0.747519
77 1 21.581890 6.271356 9.980165 0.007473 -0.017748 0.418693
78 1 23.136418 7.057403 9.715942 0.023353 -0.055682 0.264099
79 1 15.253379 10.442592 10.213142 -0.264095 0.123222 -0.152289
80 1 14.979090 11.708369 8.996813 -0.120430 0.909020 0.064246
81 1 14.499379 8.723369 8.520557 0.914436 0.337466 -0.241237
82 1 14.950233 9.876810 7.226813 0.357896 -0.051641 -1.423293
83 1 12.693765 10.022600 9.238501 -0.492668 -0.091484 1.446936
84 1 12.936748 11.194490 7.940114 -0.137347 -0.074433 0.376449
85 2 18.375998 13.840932 9.873796 0.383629 -0.732034 -0.528950
86 2 17.402224 11.865343 9.529013 0.825405 -0.372935 0.573450
87 2 12.430452 13.749413 8.527577 1.076308 1.634488 -2.191563
88 2 13.915833 15.065274 7.430622 -1.720077 -1.475552 1.774464
89 2 12.229078 8.032834 7.288467 0.865316 1.937958 0.602546
90 2 11.404415 9.909720 6.422469 0.302718 0.509163 0.724291
Energy
-509.364296150000
PlusStress: xx yy zz yz xz xy
0.000812 0.001595 0.001418 -0.000075 0.000585 0.000204
Feature EFS_by vasp
Feature from database:p.cfg
Feature mindist 2.70
END_CFG

BEGIN_CFG
Size
90
Supercell
28.250000 0.000000 0.000000
0.000000 25.250000 0.000000
0.000000 0.000000 15.250000
AtomData: id type cartes_x cartes_y cartes_z fx fy fz
1 0 5.745460 10.600894 7.575714 -1.298927 -0.714019 0.142160
2 0 6.196615 10.940394 6.121074 -0.391351 -0.731684 -0.195322
3 0 7.477920 11.708040 5.870673 0.700199 -1.336949 -1.231549
4 0 8.742963 10.910634 6.248910 -0.006438 0.408885 0.794669
5 0 9.895856 11.681182 5.641743 0.512762 -2.037699 -0.464968
6 0 11.293446 11.318252 6.151410 -0.087043 1.122720 0.489073
7 0 12.342434 12.034556 5.352316 0.562386 0.084110 -1.745376
8 0 12.104530 13.551580 5.015527 0.780840 -0.430977 -0.317429
9 0 11.822968 14.465779 6.241799 -2.319349 -0.417792 -0.848084
10 0 12.617816 14.277941 7.441563 1.495275 0.689110 -0.363168
11 0 14.515081 15.571996 6.407586 -1.449202 -1.715409 0.079098
12 0 14.725999 17.022273 6.558409 -0.500992 1.162798 0.531232
13 0 13.509757 17.872757 6.966493 0.747837 1.444443 -0.047440
14 0 13.873075 19.331148 7.504052 -1.305424 -0.407185 0.605674
15 0 14.601367 19.431566 8.857511 1.212360 0.098329 -1.644694
16 0 14.860049 20.887722 9.252133 -0.375723 0.122851 0.425755
17 0 15.796496 14.731750 6.282022 -0.150582 -1.387964 1.124242
18 0 16.464513 14.441829 7.653817 0.286607 -1.226851 0.147704
19 0 17.632269 13.347082 7.649828 -1.389488 -0.635483 0.348525
20 0 18.006443 12.969116 9.136103 -1.340512 0.644437 0.656890
21 0 16.850347 10.749641 9.001675 -0.649763 0.767156 -1.924819
22 0 17.570032 9.557495 9.506388 -0.279842 -1.578820 1.944215
23 0 19.058368 9.454242 9.190757 -0.960437 -1.247387 -0.014485
24 0 19.833128 8.328957 9.931155 -0.595185 0.944486 -0.155755
25 0 21.181439 8.208514 9.271614 0.892984 0.701708 -1.048689
26 0 22.228679 7.211935 9.822936 -0.454025 1.097101 0.212453
27 0 15.299988 10.757765 9.076908 -0.001146 -0.198171 0.465101
28 0 14.530707 9.837461 8.131293 -0.540926 1.194041 -1.601223
29 0 12.997147 10.140048 8.261936 0.180788 -0.116247 1.709739
30 0 12.201928 9.306231 7.305451 0.179895 0.862494 -1.188947
31 1 5.855820 11.386193 8.353166 0.075062 -0.022261 -0.464899
32 1 4.636765 10.322550 7.553036 0.948940 0.547912 -0.030768
33 1 6.162579 9.648619 8.014987 0.294303 0.799165 -0.560285
34 1 6.310659 9.941904 5.617726 -0.003875 0.530427 0.144799
35 1 5.434718 11.448296 5.496588 -0.379066 -0.080509 0.647554
36 1 7.520576 12.739190 6.220938 -0.145828 0.195323 0.758066
37 1 7.586736 11.864907 4.755742 -0.395703 -0.205486 0.514451
38 1 8.802258 10.805595 7.374039 0.149586 0.038851 -0.812629
39 1 8.819286 9.886329 5.795639 -0.613429 0.504739 0.443128
40 1 9.738320 11.554540 4.544371 0.657739 -0.178889 0.129642
41 1 9.805926 12.727709 5.755859 -0.306957 1.468764 0.563285
42 1 11.428005 11.781814 7.133087 -0.611268 -0.298773 0.531900
43 1 12.495493 11.449019 4.390924 -0.039134 0.678786 0.596483
44 1 13.303089 12.013011 5.879257 0.234207 -0.265067 0.144723
45 1 11.266033 13.719345 4.313184 0.232928 -0.234560 0.033934
46 1 13.066964 13.805902 4.459278 -1.017684 0.253011 0.541923
47 1 11.678599 15.519653 5.976660 0.374686 0.130060 -0.283407
48 1 10.829895 14.176993 6.695937 0.347069 0.140931 -0.877444
49 1 13.827426 15.359007 5.568263 0.444921 0.194064 -0.120233
50 1 15.453706 17.186146 7.328340 0.894116 0.087835 0.695174
51 1 15.174919 17.373932 5.637226 0.215426 0.298916 -0.548334
52 1 12.832191 18.074925 6.130588 -0.207714 -0.374473 -0.231883
53 1 12.984610 17.317623 7.739809 -0.369874 0.019849 0.320285
54 1 14.377954 19.958424 6.759832 0.228134 -0.202122 -0.296710
55 1 12.891357 19.871818 7.688640 0.565196 -0.505293 -0.357937
56 1 14.101160 18.792903 9.551373 -0.840894 -0.109354 1.139194
57 1 15.596850 18.946478 8.805777 0.024543 0.048053 -0.288366
58 1 13.962485 21.409789 9.674851 0.392267 -0.187840 -0.588035
59 1 15.331686 21.471864 8.424136 -0.542878 -0.272404 0.256683
60 1 15.596370 20.901950 10.049833 0.334232 0.074116 0.476598
61 1 16.509443 15.202419 5.619262 0.251513 0.308251 -0.549737
62 1 15.546630 13.713347 5.888137 -0.005303 0.601067 -0.193919
63 1 15.673238 14.114049 8.347342 0.144632 -0.030462 -0.069105
64 1 16.902117 15.319197 8.093981 0.263835 0.809332 0.282182
65 1 17.348413 12.457697 7.007897 0.011071 0.630376 0.795588
66 1 18.465959 13.759018 7.138168 1.266391 0.597249 -0.294240
67 1 17.089894 10.831072 7.905190 0.058800 0.153091 0.478381
68 1 17.015547 8.673572 9.123313 0.255425 0.001204 0.162718
69 1 17.495188 9.523757 10.637664 -0.325750 0.040636 -0.746065
70 1 19.096262 9.210377 8.125161 0.484553 0.357062 -0.412358
71 1 19.486903 10.400731 9.429174 0.776214 1.008418 -0.088705
72 1 19.264580 7.415119 9.806909 -0.268385 -0.666920 0.122043
73 1 19.878969 8.560419 11.009120 0.123934 -0.051733 -0.014528
74 1 21.604220 9.252432 9.159774 -0.007087 -0.689196 0.460624
75 1 20.969678 7.977351 8.189996 0.246403 -0.216851 0.540529
76 1 22.441978 7.371122 10.909348 -0.324969 -0.252893 -0.480512
77 1 21.870124 6.207277 9.609114 0.134026 -0.475012 0.261329
78 1 23.175820 7.387424 9.305780 0.187497 -0.187470 -0.170158
79 1 15.036197 10.370752 10.077158 -0.115027 0.671100 0.273308
80 1 14.908629 11.811545 8.905948 0.522699 -0.912696 0.489495
81 1 14.637586 8.780141 8.296376 0.517176 -0.710698 0.109263
82 1 14.818154 10.083051 7.044781 -0.224798 -0.463639 1.068351
83 1 12.597756 9.777993 9.275783 0.729489 0.520852 -0.838861
84 1 12.910331 11.243393 8.262477 -0.497899 -0.376579 -0.275073
85 2 18.567328 13.697018 9.951910 0.152437 -0.195635 -1.403033
86 2 17.348869 11.891341 9.717434 0.514636 0.419355 -0.462644
87 2 12.274972 13.495790 8.295445 0.010245 -0.701176 1.543320
88 2 13.729807 15.025037 7.599947 1.240589 0.397469 0.034549
89 2 12.219281 8.097048 7.327178 -0.110436 -0.628603 0.217664
90 2 11.555037 9.906361 6.238699 -0.401382 -0.185485 -0.197428
Energy
-509.459534390000
PlusStress: xx yy zz yz xz xy
0.000675 0.001124 0.001410 -0.000160 0.000003 -0.000544
Feature EFS_by vasp
Feature from database:p.cfg
Feature mindist 2.70
END_CFG

BEGIN_CFG
Size
90
Supercell
28.250000 0.000000 0.000000
0.000000 25.250000 0.000000
0.000000 0.000000 15.250000
AtomData: id type cartes_x cartes_y cartes_z fx fy fz
1 0 5.721536 10.366428 7.464937 0.191424 0.313916 1.320972
2 0 6.026880 10.929090 6.107687 0.511733 0.843215 -0.194347
3 0 7.354528 11.751380 6.071025 0.712080 0.056727 -0.964487
4 0 8.742504 11.065717 6.366429 0.039754 -0.031123 -0.095824
5 0 9.981067 11.382823 5.451719 -2.262033 2.503183 -1.830122
6 0 11.320958 11.362213 6.040833 2.727275 0.706744 1.124687
7 0 12.586798 12.078850 5.326115 -0.978847 -0.279512 1.392443
8 0 12.332814 13.517768 4.937434 -1.361395 -0.890421 -0.341757
9 0 11.914768 14.430683 6.051610 -0.656439 1.181128 0.646550
10 0 12.597241 14.232712 7.367484 0.477439 0.667363 0.226886
11 0 14.473272 15.609875 6.511728 0.387870 0.122683 0.171314
12 0 14.688390 17.097873 6.785554 1.953973 -1.033746 -0.029572
13 0 13.510900 17.950641 6.961226 -2.928900 -0.589417 0.029959
14 0 13.951203 19.312141 7.312547 2.150032 1.009946 0.613632
15 0 14.634236 19.313833 8.711064 -0.927455 -0.197572 0.224964
16 0 15.098846 20.684286 9.201731 -0.070519 -0.740449 1.320863
17 0 15.780171 14.841731 6.576912 1.398383 0.406453 -0.173325
18 0 16.409536 14.568092 7.970744 -0.245515 -0.154976 0.762680
19 0 17.455703 13.445383 7.713563 1.752784 1.847675 0.360358
20 0 18.037773 12.987863 9.063831 -2.604402 -1.629913 0.975331
21 0 16.772347 10.786383 9.108868 0.164026 -0.485317 1.659105
22 0 17.387484 9.505327 9.781919 0.961372 0.055023 -2.234347
23 0 18.879132 9.299206 9.268821 -0.246494 1.629055 0.977474
24 0 19.810573 8.328038 9.997102 0.069893 -0.656497 -0.298686
25 0 21.200291 8.319874 9.284792 -0.894291 -0.525581 -0.029873
26 0 22.095788 7.173557 9.736259 -0.158155 -0.025570 -0.126267
27 0 15.217561 10.860752 9.184025 0.875147 -1.715697 -0.885391
28 0 14.509533 10.031342 8.037538 0.294732 -2.005282 1.294194
29 0 12.972501 10.040856 8.288076 0.781602 1.288089 -0.727279
30 0 12.212827 9.331029 7.185955 0.057905 -0.178670 0.342133
31 1 5.690149 11.117370 8.291602 0.137554 -0.070599 -0.474692
32 1 4.813387 9.793623 7.593647 -0.756863 -0.205864 -0.433346
33 1 6.503723 9.652371 7.736238 0.356374 -0.102838 0.131769
34 1 6.050594 10.087127 5.398269 0.168595 0.126878 -0.216323
35 1 5.300815 11.680779 5.709412 -0.139931 -0.622304 0.383693
36 1 7.197564 12.732932 6.611873 0.341778 -0.869496 -0.175876
37 1 7.461708 12.017390 5.008565 -0.180207 0.399985 -0.180652
38 1 9.056862 11.260059 7.370496 0.182231 0.382615 1.135382
39 1 8.641256 9.983693 6.355282 -0.301635 -0.533946 -0.128111
40 1 9.940207 10.742173 4.567048 0.100813 -0.272806 -0.216112
41 1 9.844499 12.441045 4.989583 -0.036476 -1.143674 0.681248
42 1 11.337717 11.828955 7.044667 -0.381259 -0.261640 -0.037641
43 1 12.899959 11.458620 4.508116 0.133104 -0.350420 -0.902926
44 1 13.433356 12.039658 6.066408 -0.589631 -0.092086 -0.291005
45 1 11.461040 13.548125 4.274461 0.055484 -0.118872 -0.589822
46 1 13.151986 13.934653 4.390552 0.898260 0.290639 -0.489322
47 1 12.009113 15.466012 5.692102 0.226182 0.121296 0.124516
48 1 10.852847 14.406497 6.324169 -0.247394 -0.636991 -0.244294
49 1 13.899580 15.402375 5.597142 0.539851 0.356625 -0.292039
50 1 15.319448 17.154009 7.739364 -0.568256 -0.151790 -1.171008
51 1 15.322244 17.535464 5.949654 -0.352763 -0.552253 0.647403
52 1 12.826431 17.984132 6.057804 0.629622 -0.174256 0.458093
53 1 12.841829 17.544112 7.803558 0.675983 0.365698 -0.831267
54 1 14.714309 19.681431 6.568968 -0.535122 -0.130559 0.249098
55 1 13.149126 20.018750 7.317155 -0.830662 0.718118 0.033375
56 1 13.856898 18.811691 9.390500 0.921071 0.766164 -0.317750
57 1 15.515261 18.650156 8.727853 -0.161086 0.053814 -0.026485
58 1 14.354303 21.459229 9.081348 -0.426170 0.425444 -0.127629
59 1 16.030127 21.006209 8.758041 0.418904 0.155149 -0.614585
60 1 15.338280 20.621672 10.291191 -0.212957 0.073337 -0.360009
61 1 16.572167 15.288984 5.907859 -0.631687 -0.182931 0.342448
62 1 15.614824 13.833742 6.220078 -0.337855 -0.474261 -0.634000
63 1 15.638623 14.155425 8.669218 0.253219 0.378928 -0.428679
64 1 16.902246 15.428379 8.525728 -0.465752 -0.662098 -0.801536
65 1 17.048027 12.762740 6.994667 -0.204480 -1.061175 -0.093121
66 1 18.284054 14.012322 7.169746 -0.424469 -0.945727 0.546452
67 1 17.001046 10.886747 8.055873 0.574091 -0.177530 -0.505513
68 1 16.917416 8.589757 9.389457 -0.685912 0.112988 0.415824
69 1 17.267670 9.609535 10.853733 0.088108 -0.104708 0.479025
70 1 18.781717 8.966427 8.206866 0.274415 0.431096 0.360876
71 1 19.381029 10.324499 9.364084 -0.467236 -0.996322 -0.588087
72 1 19.371672 7.291513 9.932049 0.342597 0.492042 0.103602
73 1 19.935356 8.542566 11.082505 -0.159764 0.131872 -0.348833
74 1 21.686457 9.287976 9.352835 0.251978 0.487285 0.371917
75 1 20.997049 8.220891 8.214829 -0.091496 -0.174149 -0.382529
76 1 22.453761 7.392615 10.746950 0.187699 -0.196159 0.235150
77 1 21.454777 6.256150 9.785693 0.719818 0.240118 -0.140393
78 1 22.984470 7.048169 9.067381 -0.552462 -0.143195 0.375745
79 1 14.849571 10.474669 10.145426 -0.031806 0.328732 0.085094
80 1 14.944120 11.865404 9.002336 -0.572641 1.540671 0.250391
81 1 14.743820 8.917318 8.144345 0.350586 1.108262 -0.276393
82 1 14.795593 10.323803 7.013914 -0.055916 0.221219 0.161489
83 1 12.803435 9.606991 9.261725 -0.308523 -0.623513 0.336247
84 1 12.776683 11.104423 8.414075 -0.813074 0.382600 -0.211418
85 2 18.702651 13.689123 9.753658 2.158879 2.027217 0.398207
86 2 17.510649 11.902215 9.852978 -1.108565 -0.454470 -2.775791
87 2 12.158523 13.485644 8.238824 0.765400 0.719342 -0.192731
88 2 13.726521 15.007974 7.573396 -1.489310 -0.817710 1.478061
89 2 12.115729 8.121543 7.134366 0.315631 -0.871017 0.491808
90 2 11.680908 9.978920 6.130572 -0.104483 -0.153292 -0.268051
Energy
-508.890421280000
PlusStress: xx yy zz yz xz xy
0.001449 0.000355 0.001053 -0.000496 -0.000152 0.000626
Feature EFS_by vasp
Feature from database:p.cfg
Feature mindist 2.70
END_CFG

BEGIN_CFG
Size
90
Supercell
28.250000 0.000000 0.000000
0.000000 25.250000 0.000000
0.000000 0.000000 15.250000
AtomData: id type cartes_x cartes_y cartes_z fx fy fz
1 0 5.978449 10.213586 7.399879 -0.273208 -0.003206 1.606549
2 0 6.180474 10.859964 6.052620 1.004661 -0.554605 -0.583620