BEGIN_CFG
Size
30
Supercell
19.000000 0.000000 0.000000
0.000000 15.000000 0.000000
0.000000 0.000000 16.000000
AtomData: id type cartes_x cartes_y cartes_z fx fy fz
1 0 12.138233 8.627427 8.269520 0.781878 -0.161284 -0.226741
2 0 11.889233 7.110127 8.280520 -0.740202 1.071748 0.952838
3 0 10.921233 6.745727 9.407520 -1.122353 0.509533 0.402952
4 0 9.477633 7.425927 9.414520 1.255439 -1.845118 -1.273039
5 0 8.738533 7.028027 8.093520 1.142962 2.768339 0.905299
6 0 7.296833 7.301927 8.163520 -1.932556 0.037103 -0.444360
7 0 6.592833 6.735527 6.921520 -0.530563 0.177151 0.317977
8 0 7.028433 8.808427 8.235520 -0.931034 0.435278 1.395616
9 0 10.314233 7.767427 6.355620 4.185638 -1.020081 -1.951248
10 0 11.387233 6.669427 6.931620 -1.683546 0.177112 0.319204
11 1 11.209233 9.206427 8.235520 -0.009951 0.059324 0.019418
12 1 12.733233 8.933427 9.126520 -0.011444 0.127322 0.571210
13 1 12.754233 8.911427 7.404720 -0.142583 0.031459 -0.192799
14 1 12.824233 6.603727 8.508520 0.469473 -0.261499 -0.036037
15 1 10.779233 5.659827 9.389520 -0.264724 -0.307714 -0.091076
16 1 11.348233 6.921827 10.390520 0.475747 0.314427 0.392746
17 1 9.451633 8.494427 9.593520 0.321899 0.475700 -0.252787
18 1 8.947533 7.003027 10.269520 -0.310567 -0.336690 0.133850
19 1 9.029333 6.042427 7.766620 0.010894 -0.524159 -0.311688
20 1 6.856433 6.819927 9.065520 0.241196 0.041653 -0.208947
21 1 6.797933 5.662527 6.817220 -0.186020 -0.081021 -0.141364
22 1 6.885233 7.267527 6.013720 0.371806 -0.013699 -0.178476
23 1 5.512633 6.931727 7.004220 -0.078781 -0.368679 0.054588
24 1 5.944633 9.032427 8.302520 0.103665 -0.345220 0.338401
25 1 7.520933 9.295427 9.113520 -0.287980 -0.211955 -0.459826
26 1 7.309633 9.337427 7.348220 0.573924 0.248594 -0.698278
27 1 11.030233 5.626727 6.977420 -0.252013 0.022722 -0.025836
28 1 12.231233 6.684927 6.254420 -0.014867 0.152881 -0.617922
29 2 10.936233 8.282427 5.352920 -4.088972 0.270371 2.472393
30 2 9.113533 8.062427 6.991920 2.662869 -1.442281 -1.170139
Energy
-169.127614290000
PlusStress: xx yy zz yz xz xy
0.001017 0.000914 0.000870 -0.000196 -0.000767 -0.000700
Feature EFS_by vasp
Feature from database:p.cfg
Feature mindist 2.70
END_CFG

BEGIN_CFG
Size
30
Supercell
19.000000 0.000000 0.000000
0.000000 15.000000 0.000000
0.000000 0.000000 16.000000
AtomData: id type cartes_x cartes_y cartes_z fx fy fz
1 0 12.413491 8.669354 8.195022 0.895014 -0.319203 0.073250
2 0 11.929689 7.217329 8.354326 0.478884 -1.470258 -0.421246
3 0 10.978068 6.945118 9.550860 0.069284 -1.917389 0.021460
4 0 9.602743 7.507126 9.354865 -1.018133 1.632841 -0.897617
5 0 8.779165 7.048361 8.090160 -0.029535 0.206361 -0.340188
6 0 7.284448 7.494872 8.145235 -0.975555 -0.905463 -0.156132
7 0 6.368866 6.817710 7.085664 -0.034570 0.307889 0.023311
8 0 6.843945 8.947911 8.342680 0.207211 1.087400 -0.417980
9 0 10.423997 7.489272 6.183474 0.628113 -1.835457 3.496133
10 0 11.403569 6.477603 6.937195 0.219600 2.195295 0.166037
11 1 11.643706 9.397737 7.919432 -0.131480 -0.082764 -0.271479
12 1 12.877271 9.057289 9.134436 -0.308664 -0.391699 -0.188040
13 1 13.251770 8.685318 7.456315 -0.594436 0.193341 0.093850
14 1 12.824394 6.548951 8.534762 -0.415807 0.755525 0.080501
15 1 10.899634 5.804928 9.603198 0.029158 0.916111 0.068812
16 1 11.336224 7.227809 10.587352 0.198851 0.104509 -1.076507
17 1 9.737943 8.614533 9.238140 -0.241538 -0.335172 -0.008975
18 1 8.963373 7.440666 10.264096 0.155738 -0.391855 -0.358001
19 1 8.851533 5.907763 7.988781 -0.236367 1.194064 -0.017179
20 1 6.845606 7.070580 9.054436 0.494723 -0.489826 0.569153
21 1 6.506883 5.723997 7.055260 0.177054 0.116126 -0.204454
22 1 6.457395 7.269949 6.083672 0.217347 -0.234602 0.026275
23 1 5.316993 6.981348 7.398849 0.226753 -0.029233 -0.068173
24 1 5.754781 8.974449 8.440177 -0.326867 -0.353265 0.115015
25 1 7.197161 9.326095 9.304267 0.341752 0.304905 0.122978
26 1 6.993605 9.739299 7.557143 0.595365 -0.828754 0.263512
27 1 10.901365 5.530713 7.178168 0.094120 0.029980 0.018086
28 1 12.327609 6.298767 6.325158 -0.803193 0.130051 0.252190
29 2 10.653116 8.284942 5.341472 1.815496 1.358992 -3.205320
30 2 9.243732 7.690809 6.782327 -1.745841 -0.938511 2.218928
Energy
-169.411868360000
PlusStress: xx yy zz yz xz xy
0.001205 0.002055 0.001944 0.000534 0.000820 -0.000574
Feature EFS_by vasp
Feature from database:p.cfg
Feature mindist 2.70
END_CFG

BEGIN_CFG
Size
30
Supercell
19.000000 0.000000 0.000000
0.000000 15.000000 0.000000
0.000000 0.000000 16.000000
AtomData: id type cartes_x cartes_y cartes_z fx fy fz
1 0 12.754143 8.578415 8.258537 -1.670578 -0.396017 0.789725
2 0 12.014682 7.175588 8.350358 -0.986316 0.873914 0.414684
3 0 10.885101 7.053383 9.456203 0.094316 1.850189 -1.054452
4 0 9.567365 7.841414 9.135276 0.110009 -0.262854 0.502126
5 0 8.670512 7.109375 8.107028 0.237657 1.626343 0.811027
6 0 7.183179 7.432285 8.319802 -0.457691 -0.145036 0.001976
7 0 6.366661 6.803726 7.173635 0.787398 0.102970 -0.439791
8 0 7.029078 8.950301 8.443641 -0.621775 1.035469 0.001940
9 0 10.289256 7.419006 6.267087 1.472190 1.330072 -1.509571
10 0 11.493143 6.682808 6.998411 -1.290750 -0.028385 -0.370235
11 1 12.024281 9.399204 8.064977 0.278152 -0.371678 -0.276194
12 1 13.230979 8.885463 9.198399 0.049838 -0.356875 0.249282
13 1 13.523452 8.577059 7.503431 0.310125 -0.055858 -0.625210
14 1 12.736075 6.422144 8.628507 0.733666 -0.350723 0.242630
15 1 10.584118 6.041358 9.600238 -0.044643 -1.345267 -0.053087
16 1 11.348983 7.343533 10.389067 0.015628 0.463913 0.646941
17 1 9.765543 8.804983 8.647527 0.292388 0.169253 0.216668
18 1 8.946538 8.118013 10.039884 0.749819 -0.598712 -0.444429
19 1 8.797955 6.052116 8.163016 0.301600 -1.255441 -0.187290
20 1 6.864001 6.888456 9.230303 0.266444 0.348899 0.214062
21 1 6.574994 5.722286 7.105328 0.055807 0.015814 0.074219
22 1 6.773343 7.256459 6.253808 -0.464044 -0.126264 -0.180517
23 1 5.279195 6.898215 7.207727 -0.129667 0.378790 0.237359
24 1 6.000900 9.351879 8.605891 0.209771 -0.642774 0.005207
25 1 7.650111 9.457626 9.216333 -0.254502 -0.557374 -0.123304
26 1 7.344677 9.420778 7.503910 0.070013 -0.034128 -0.239776
27 1 11.251545 5.600293 7.095566 -0.085147 0.275961 -0.047561
28 1 12.288165 6.772675 6.263364 0.193666 -0.077702 -0.344799
29 2 10.548432 7.942974 5.154437 -0.916595 -1.082263 2.019983
30 2 9.035807 7.620477 6.791698 0.674867 -0.774695 -0.535843
Energy
-169.919167880000
PlusStress: xx yy zz yz xz xy
0.001999 0.001210 0.000699 -0.000202 -0.000347 0.000386
Feature EFS_by vasp
Feature from database:p.cfg
Feature mindist 2.70
END_CFG

BEGIN_CFG
Size
30
Supercell
19.000000 0.000000 0.000000
0.000000 15.000000 0.000000
0.000000 0.000000 16.000000
AtomData: id type cartes_x cartes_y cartes_z fx fy fz
1 0 12.756284 8.420312 8.223789 0.822117 0.359048 -0.367221
2 0 12.048624 7.095909 8.370973 -1.722903 -1.051011 -1.016458
3 0 10.969252 7.234400 9.545708 0.830170 -0.134526 0.535795
4 0 9.643482 7.932708 9.247665 0.272417 0.296071 -0.763412
5 0 8.748671 7.288224 8.218075 0.582726 -1.722325 -0.423257
6 0 7.239224 7.518255 8.474774 0.048324 0.522455 -1.689970
7 0 6.447735 6.800086 7.352338 -0.596088 -0.010910 0.418494
8 0 6.880729 9.021666 8.342056 0.510031 0.566935 0.340144
9 0 10.283637 7.383820 6.119683 -0.035610 0.624300 0.397571
10 0 11.355362 6.644648 6.889137 0.926151 -0.283494 0.932986
11 1 11.990592 9.179232 8.062691 -0.090445 0.443358 -0.259566
12 1 13.249204 8.698435 9.174989 0.116756 -0.099909 -0.200951
13 1 13.514381 8.494666 7.381168 -0.744275 -0.245202 0.770087
14 1 12.759551 6.264608 8.661764 -0.591276 0.614437 -0.448711
15 1 10.698560 6.260699 10.097490 0.679466 0.899172 -0.913921
16 1 11.473294 7.913220 10.306072 -0.309252 -0.868705 -0.362215
17 1 9.756806 9.006290 9.054795 0.101202 0.163122 -0.122645
18 1 9.051991 7.858009 10.147426 -0.307861 0.143697 0.798056
19 1 8.917602 6.173803 8.353996 -0.139511 0.653950 -0.497120
20 1 6.907571 7.065966 9.437781 0.583081 0.358417 -0.147349
21 1 6.654666 5.727022 7.219197 0.245035 -0.013893 0.293633
22 1 6.689264 7.282112 6.403770 -0.221403 0.096492 -0.237041
23 1 5.360096 6.879941 7.578126 0.346808 0.073403 -0.293034
24 1 5.806986 9.157300 8.309944 -0.558290 0.034742 -0.058799
25 1 7.257571 9.765970 9.069904 0.012293 -0.685971 0.620607
26 1 7.306604 9.479005 7.439274 -0.141580 -0.516165 -0.526577
27 1 10.911088 5.643761 7.019383 0.131278 -0.187161 0.238528
28 1 12.093956 6.541143 6.066214 0.372883 -0.076084 0.792217
29 2 10.455415 7.707941 4.940652 -0.624376 -0.168974 1.111551
30 2 9.075399 7.611346 6.732962 -0.508751 0.218042 1.063508
Energy
-169.543147120000
PlusStress: xx yy zz yz xz xy
0.001398 0.001270 0.003203 -0.000117 -0.000762 0.000422
Feature EFS_by vasp
Feature from database:p.cfg
Feature mindist 2.70
END_CFG

BEGIN_CFG
Size
30
Supercell
19.000000 0.000000 0.000000
0.000000 15.000000 0.000000
0.000000 0.000000 16.000000
AtomData: id type cartes_x cartes_y cartes_z fx fy fz
1 0 12.721329 8.472030 7.867864 -2.188943 -0.817876 0.113920
2 0 12.023785 7.079404 8.290857 -0.583237 1.241847 -0.688706
3 0 11.004730 7.212150 9.428968 -0.206851 0.939906 -0.335051
4 0 9.729063 8.075642 9.282004 -0.895444 0.197978 0.406907
5 0 8.782000 7.393412 8.225710 0.556003 -0.011688 0.993151
6 0 7.272247 7.625307 8.330654 -0.445260 -0.602804 -0.216456
7 0 6.396414 6.675517 7.468330 1.199400 -0.424599 -0.170401
8 0 6.884941 9.053554 8.238163 -0.103217 2.577039 -0.056005
9 0 10.324384 7.343958 6.216500 -0.834193 -1.038318 1.767023
10 0 11.281439 6.389731 7.119665 -0.931873 0.806250 -1.853500
11 1 11.903850 9.129374 7.472080 0.353691 -0.078479 0.561621
12 1 13.301806 9.015642 8.629351 -0.175663 -0.368746 0.093096
13 1 13.297916 8.317315 6.985082 1.042375 -0.327143 -0.747372
14 1 12.779762 6.379863 8.634474 0.453984 -0.248058 0.136208
15 1 10.527955 6.267725 9.590255 0.166718 -1.367035 0.323985
16 1 11.544004 7.440198 10.325516 0.350348 0.486341 0.949859
17 1 9.871181 9.141741 8.967896 0.081135 -0.552450 0.376969
18 1 9.230067 8.042473 10.323029 0.463358 0.257040 -1.319577
19 1 8.929420 6.311470 8.408112 -0.031676 -0.139783 -0.446150
20 1 7.005254 7.338620 9.345669 0.135670 -0.240319 0.669191
21 1 6.691186 5.629581 7.691621 -0.049502 0.118411 -0.074139
22 1 6.518313 6.800901 6.373841 -0.100683 0.221061 0.312456
23 1 5.353496 6.755530 7.758539 -0.433117 0.241879 -0.044487
24 1 5.847215 9.293584 8.573923 0.389618 -0.355458 -0.308471
25 1 7.536608 9.666710 8.877431 -0.010353 -0.115343 0.662943
26 1 7.091863 9.627729 7.307998 -0.425213 -0.877755 -0.341947
27 1 10.566093 5.608611 7.465417 0.334643 0.289441 0.238076
28 1 11.894884 5.845730 6.388577 0.435646 0.330197 0.008349
29 2 10.346701 7.585370 5.030397 0.746279 -0.046102 0.323039
30 2 9.180387 7.797071 6.921619 0.696796 -0.082812 -1.355082
Energy
-169.615919410000
PlusStress: xx yy zz yz xz xy
0.001746 0.001185 0.000607 -0.000393 0.000356 0.000532
Feature EFS_by vasp
Feature from database:p.cfg
Feature mindist 2.70
END_CFG

BEGIN_CFG
Size
30
Supercell
19.000000 0.000000 0.000000
0.000000 15.000000 0.000000
0.000000 0.000000 16.000000
AtomData: id type cartes_x cartes_y cartes_z fx fy fz
1 0 12.389074 8.341417 7.548928 1.247452 1.016236 -0.810631
2 0 11.907914 7.069182 8.151795 0.418775 -0.076250 1.476020
3 0 11.094479 7.403188 9.435942 -0.304291 -1.242624 1.043819
4 0 9.680669 8.013044 9.318329 1.953412 -0.364000 -0.910107
5 0 8.822385 7.318257 8.312153 1.596805 2.091504 -0.691700
6 0 7.449261 7.757752 8.416363 -3.385056 -0.726607 1.942723
7 0 6.595627 6.755664 7.667878 -1.102033 0.085921 -0.315853
8 0 6.978153 9.161308 8.103183 0.239452 1.323013 0.369471
9 0 10.185624 7.259797 6.318712 1.719633 -1.619173 -1.788748
10 0 11.182213 6.252721 7.125662 -1.156296 0.256533 -1.342276
11 1 11.586066 8.982755 7.174789 -0.217764 0.133668 0.017459
12 1 12.876836 8.875372 8.375634 0.368088 0.364373 -0.317132
13 1 13.089288 8.208804 6.669725 -0.413836 0.040213 0.833632
14 1 12.838148 6.518035 8.471830 -0.694226 0.112882 -0.001466
15 1 10.934673 6.403500 9.937763 0.199858 0.595099 -0.063185
16 1 11.629205 8.048339 10.183956 0.187844 -0.518053 -0.653725
17 1 9.765510 9.054359 9.063707 -0.115372 0.891757 -0.203999
18 1 9.229887 7.951424 10.282667 -0.556650 -0.073326 1.038275
19 1 9.021507 6.246721 8.392780 -0.494014 -0.279053 -0.403073
20 1 7.148494 7.662625 9.503541 0.324803 -0.268832 -0.503093
21 1 6.773654 5.746450 8.065709 -0.274698 -0.071569 -0.066356
22 1 6.857099 6.764200 6.602258 0.000667 -0.069419 -0.141302
23 1 5.517716 7.043535 7.739920 0.439938 -0.449998 0.002906
24 1 5.923773 9.258248 8.370056 -0.326585 -0.265673 0.230889
25 1 7.449119 10.014241 8.642865 0.248335 -0.560079 -0.001743
26 1 6.996236 9.444881 7.067516 0.335037 -0.070003 -0.996564
27 1 10.713398 5.294367 7.433436 -0.194817 0.477175 0.394672
28 1 11.920484 5.909354 6.376746 -0.269964 0.373511 -0.133819
29 2 10.467718 7.470484 5.126499 -0.882041 0.224589 1.589337
30 2 9.136900 7.852330 6.925637 1.094153 -1.315022 0.406039
Energy
-169.521115230000
PlusStress: xx yy zz yz xz xy
-0.000609 0.000734 0.000598 -0.000065 -0.000171 -0.001305
Feature EFS_by vasp
Feature from database:p.cfg
Feature mindist 2.70
END_CFG

BEGIN_CFG
Size
30
Supercell
19.000000 0.000000 0.000000
0.000000 15.000000 0.000000
0.000000 0.000000 16.000000
AtomData: id type cartes_x cartes_y cartes_z fx fy fz
1 0 12.487474 8.489285 7.423344 -0.915613 -0.169371 0.676247
2 0 11.945848 7.174537 8.089670 0.355815 -0.043715 -1.009514
3 0 11.175344 7.394769 9.369502 -0.271103 -0.400755 1.394534
4 0 9.853236 8.167058 9.326657 0.036202 0.863068 -1.215698
5 0 8.792912 7.343563 8.504864 1.408532 0.761769 -1.267291
6 0 7.354244 7.789423 8.510711 -1.487591 0.383277 -1.389707
7 0 6.373014 6.798884 7.720636 0.800733 0.877883 0.525447
8 0 7.104797 9.277691 8.023189 -0.737532 -0.176967 -1.274043
9 0 10.138318 7.058985 6.299480 1.524740 -0.686306 2.303444
10 0 11.157972 6.269492 7.092676 -0.490069 -0.352679 0.577766
11 1 11.677327 9.257829 7.417579 0.424397 -0.227006 -0.029942
12 1 13.366262 8.918379 7.938087 -0.201894 -0.206354 0.030162
13 1 12.731675 8.308304 6.383717 0.251807 -0.090607 -0.462053
14 1 12.803137 6.556715 8.382353 0.293198 -0.005145 0.017735
15 1 10.946491 6.393369 9.822675 0.251108 0.354033 -0.161884
16 1 11.869200 7.875490 10.075087 -0.061798 0.164669 0.170584
17 1 10.069294 9.104557 8.720016 -0.529668 -0.582384 0.633924
18 1 9.545261 8.534367 10.353611 -0.066664 -0.680001 -0.888073
19 1 9.027987 6.256197 8.657090 -0.796891 0.556612 0.038838
20 1 6.919557 7.797836 9.502050 0.243891 -0.247842 0.889354
21 1 6.463662 5.783713 8.137781 -0.133155 0.038813 -0.105765
22 1 6.465482 6.773262 6.621614 0.477418 0.063279 0.214394
23 1 5.383307 7.212649 7.911579 -0.468709 -0.243839 0.147688
24 1 6.013901 9.501959 8.001376 0.110692 -0.489149 0.355538
25 1 7.486865 10.075024 8.661994 0.586441 -0.060871 0.208852
26 1 7.348832 9.507163 6.938669 0.410202 -0.505644 1.062186
27 1 10.597582 5.511966 7.666923 0.274770 -0.186976 0.209368
28 1 11.803723 5.709014 6.391853 -0.062088 0.422670 0.097622
29 2 10.419371 7.302552 5.162281 -0.823389 0.956494 -2.482502
30 2 9.096331 7.593287 6.966721 -0.419988 -0.077337 0.717875
Energy
-169.696077680000
PlusStress: xx yy zz yz xz xy
0.000984 0.002080 0.000890 0.000233 0.000267 0.000248
Feature EFS_by vasp
Feature from database:p.cfg
Feature mindist 2.70
END_CFG

BEGIN_CFG
Size
30
Supercell
19.000000 0.000000 0.000000
0.000000 15.000000 0.000000
0.000000 0.000000 16.000000
AtomData: id type cartes_x cartes_y cartes_z fx fy fz
1 0 12.615601 8.463324 7.407247 -0.431632 -0.417150 0.137910
2 0 12.049004 7.232035 8.147443 -0.436183 -0.349661 -0.350737
3 0 11.217451 7.567774 9.445836 -0.171998 0.550135 -1.046860
4 0 9.802160 8.150162 9.154455 0.970251 -0.036858 -0.347367
5 0 8.797938 7.312941 8.381627 -0.253127 1.127759 0.020994
6 0 7.374356 7.925519 8.531365 -1.507711 -0.257257 0.820754
7 0 6.273946 6.950602 7.959252 0.954363 0.707917 -0.314774
8 0 7.191817 9.410603 8.111442 0.608403 -0.108052 0.774898
9 0 10.117946 6.937379 6.251688 0.967467 0.488347 -1.442046
10 0 11.228789 6.338633 7.114864 0.200851 -0.042595 0.245864
11 1 11.747049 9.014351 7.005383 0.416010 0.295204 -0.099987
12 1 13.226419 9.103008 8.054384 -0.117742 0.142324 0.177713
13 1 13.272050 8.147642 6.575223 -0.293606 0.036554 0.032839
14 1 12.906390 6.574488 8.409732 -0.276793 0.184746 0.215625
15 1 11.088589 6.722630 10.113648 0.090939 -0.788668 0.020545
16 1 11.788689 8.289849 10.054235 -0.042419 0.134528 -0.143996
17 1 9.891053 9.065584 8.587888 0.282339 0.705762 -0.345884
18 1 9.324080 8.464437 10.075307 -0.136025 -0.062095 0.628007
19 1 8.814320 6.302933 8.764062 -0.222555 -0.865458 0.122686
20 1 7.185680 7.943133 9.633584 0.212654 -0.172572 -0.264985
21 1 6.542014 5.937283 8.292954 -0.351854 -0.080663 0.020363
22 1 6.339762 6.966282 6.857278 -0.104928 -0.099080 0.076696
23 1 5.235873 7.215931 8.243453 0.424075 -0.033931 0.113659
24 1 6.219123 9.863592 8.318665 -0.476533 -0.510888 0.347533
25 1 7.893150 10.057039 8.670018 0.054541 -0.112786 -0.118118
26 1 7.338201 9.610772 7.072614 0.411019 -0.122644 -1.155222
27 1 10.823031 5.496968 7.719618 -0.004951 0.073856 -0.386254
28 1 11.900632 5.950437 6.348773 0.450168 -0.301370 0.123386
29 2 10.222813 7.096067 4.988428 -0.817563 -0.412984 3.884574
30 2 9.014770 7.302410 6.956309 -0.388947 0.332183 -1.755489
Energy
-170.042961300000
PlusStress: xx yy zz yz xz xy
0.001532 0.000622 0.002324 0.000129 0.000012 -0.000159
Feature EFS_by vasp
Feature from database:p.cfg
Feature mindist 2.70
END_CFG

BEGIN_CFG
Size
30
Supercell
19.000000 0.000000 0.000000
0.000000 15.000000 0.000000
0.000000 0.000000 16.000000
AtomData: id type cartes_x cartes_y cartes_z fx fy fz
1 0 12.685871 8.526665 7.377341 -0.399467 -0.696056 1.171638
2 0 12.116853 7.251379 8.126784 -0.520922 -0.703762 -1.180417
3 0 11.196314 7.639252 9.323109 0.080993 -1.264814 0.439218
4 0 9.880153 8.258942 8.874698 -0.444545 1.939896 0.359474
5 0 8.743995 7.381588 8.349696 1.474804 -0.557555 0.434796
6 0 7.351712 7.963577 8.730068 0.406098 0.234566 -0.388500
7 0 6.265212 7.128476 8.121885 -0.356468 -0.606909 -0.255873
8 0 7.172841 9.380495 8.214967 0.096849 1.604445 -1.501327
9 0 10.112669 6.722088 6.250397 -0.327010 1.689116 4.352823
10 0 11.331199 6.221360 7.121324 -0.211164 1.346620 -0.692320
11 1 11.881244 8.937330 6.754718 0.292425 0.168017 -0.268187
12 1 12.932239 9.275508 8.160349 -0.057728 -0.097414 -0.281063
13 1 13.624091 8.341749 6.819900 -0.481415 -0.136658 -0.092588
14 1 12.971848 6.589230 8.416452 -0.378463 0.540666 0.306094
15 1 10.889565 6.723160 9.956026 0.661806 0.800515 -0.809367
16 1 11.741132 8.297236 10.049079 -0.252825 -0.179536 -0.557702
17 1 10.005245 9.043056 8.050336 0.161410 -0.755582 0.926163
18 1 9.468502 8.864458 9.709852 0.196594 -0.216327 0.081237
19 1 8.767691 6.321561 8.773669 0.162409 0.818751 -0.512013
20 1 7.246813 7.911299 9.834740 0.416613 0.149834 -0.163484
21 1 6.292088 6.077839 8.466796 -0.095091 0.152514 0.047385
22 1 6.505701 7.121641 7.051489 -0.593397 -0.118581 -0.280035
23 1 5.269249 7.569375 8.332985 0.243831 -0.265983 -0.261981
24 1 6.173209 9.834305 8.409366 0.229610 -0.531650 0.051586
25 1 7.881484 10.161696 8.560760 0.038689 -0.481010 0.289738
26 1 7.308397 9.428909 7.071552 -0.272276 -0.335401 1.277175
27 1 10.962585 5.383992 7.722085 0.248777 -0.340625 -0.002287
28 1 12.028226 5.932081 6.302331 -0.116315 -0.339248 0.661868
29 2 10.059871 6.815351 5.079294 0.526393 -0.547062 -3.216863
30 2 9.010900 7.376359 6.898812 -0.727831 -1.275087 0.049422
Energy
-169.549566330000
PlusStress: xx yy zz yz xz xy
0.002109 0.001641 0.001293 -0.000423 -0.000820 -0.000029
Feature EFS_by vasp
Feature from database:p.cfg
Feature mindist 2.70
END_CFG

BEGIN_CFG
Size
30
Supercell
19.000000 0.000000 0.000000
0.000000 15.000000 0.000000
0.000000 0.000000 16.000000
AtomData: id type cartes_x cartes_y cartes_z fx fy fz
1 0 12.629545 8.372202 7.167774 -1.017790 -0.118293 0.430220
2 0 12.048685 7.273140 8.060844 -1.332041 -0.262596 -1.171435
3 0 11.232274 7.677477 9.271485 0.288351 1.243165 0.119905
4 0 9.955687 8.510506 9.112700 -0.495253 -1.205078 -1.693255
5 0 8.858484 7.615867 8.374080 -0.138834 0.256759 0.584059
6 0 7.411615 8.085814 8.696053 0.962020 -1.188180 -0.550203
7 0 6.439000 7.037619 8.157837 0.767429 -0.168890 -0.171600
8 0 7.166458 9.445171 8.188802 -0.745060 1.306756 0.023536
9 0 9.998281 6.681050 6.319107 0.761272 0.355898 -2.860035
10 0 11.245660 6.196171 7.219665 -1.169566 1.272007 -0.813444
11 1 11.819669 9.088719 6.915389 0.432822 -0.071828 -0.157348
12 1 13.461522 8.898603 7.638835 0.110720 0.157527 0.127669
13 1 12.970442 7.872076 6.270332 0.312551 0.157229 -0.635001
14 1 12.856550 6.674280 8.447134 0.761521 -0.372465 0.336716
15 1 10.991968 6.732185 9.687501 -0.543978 -1.091247 1.116682
16 1 11.904043 8.177887 9.961122 0.310710 0.304408 0.519626
17 1 10.177552 9.435701 8.570815 -0.145791 0.215743 -0.088896
18 1 9.464756 8.779057 10.073431 0.433941 -0.153023 -0.211294
19 1 8.930655 6.654474 8.888114 0.202003 -0.547838 -0.189868
20 1 7.302344 8.038446 9.778921 0.270155 0.144996 0.540074
21 1 6.771374 6.058854 8.540522 -0.138942 -0.113909 -0.088986
22 1 6.515720 7.004114 7.053311 -0.524374 0.007379 0.319506
23 1 5.452005 7.217254 8.565500 -0.652578 0.097832 -0.275614
24 1 6.154653 9.793856 8.389236 -0.424334 0.064209 0.101111
25 1 7.824044 10.245164 8.500296 0.544328 0.208816 0.881683
26 1 7.307634 9.498664 7.140760 -0.101886 -0.274783 -1.672326
27 1 10.906572 5.388870 7.899590 0.165431 0.035857 -0.333066
28 1 11.912341 5.866649 6.426416 0.197773 -0.678050 -0.018139
29 2 10.006236 6.576507 5.035147 0.064277 0.030788 4.266597
30 2 8.919385 7.323365 6.865301 0.833304 0.401416 1.545828
Energy
-169.607745930000
PlusStress: xx yy zz yz xz xy
0.000939 0.000220 0.001863 0.000639 0.000024 0.000038
Feature EFS_by vasp
Feature from database:p.cfg
Feature mindist 2.70
END_CFG

BEGIN_CFG
Size
30
Supercell
19.000000 0.000000 0.000000
0.000000 15.000000 0.000000
0.000000 0.000000 16.000000
AtomData: id type cartes_x cartes_y cartes_z fx fy fz
1 0 12.437581 8.217049 6.964442 0.791890 -0.789326 -0.509981
2 0 12.040792 7.128407 7.966255 0.684479 0.158340 -0.106813
3 0 11.468064 7.873936 9.180129 -0.204106 -0.495856 0.871093
4 0 10.080710 8.571447 9.074577 -0.864602 -0.936982 -1.083375
5 0 8.931564 7.650792 8.482810 0.598202 0.060880 -0.663761
6 0 7.462840 8.010099 8.637259 -0.777560 0.265211 1.096668
7 0 6.391080 6.967162 8.114669 0.440255 1.082655 1.118204
8 0 7.187919 9.373319 8.032873 0.174982 1.898259 -0.491509
9 0 9.919998 6.693732 6.426895 1.269379 0.585948 1.627128
10 0 11.144057 6.064883 7.342343 -2.125779 0.518168 -0.629224
11 1 11.610659 8.915409 6.819293 -0.120332 0.157951 -0.127666
12 1 13.290738 8.755396 7.424595 -0.102020 0.039097 -0.589376
13 1 12.688321 7.762269 5.965155 0.107957 0.555967 0.656321
14 1 12.974192 6.543204 8.297529 -0.906684 0.829219 -0.239018
15 1 11.444695 7.130922 10.043224 -0.017530 0.880228 -0.525424
16 1 12.161776 8.719488 9.414852 -0.054865 -0.670544 0.238931
17 1 10.115178 9.504662 8.464585 0.049316 -0.365581 0.403600
18 1 9.810038 8.798251 10.101029 -0.261028 0.451481 0.397503
19 1 9.059756 6.648589 8.932723 0.129701 -0.118137 -0.430002
20 1 7.257949 8.108518 9.756118 0.298670 -0.105375 -0.861830
21 1 6.479399 5.977551 8.599598 0.172855 0.097274 -0.299406
22 1 6.405728 6.922323 7.021779 -0.078106 -0.207717 -0.042707
23 1 5.434003 7.412220 8.487531 0.262288 -0.415984 -0.524518
24 1 6.150290 9.726373 8.243432 0.427736 -0.201738 -0.123923
25 1 7.882013 10.157589 8.450706 -0.533621 -0.503491 0.104613
26 1 7.384366 9.513138 6.928262 -0.373522 -0.742112 0.737470
27 1 10.664187 5.487945 8.152994 0.144685 -0.244091 -0.162149
28 1 11.707110 5.385069 6.676473 -0.259374 0.224887 0.094201
29 2 9.824558 6.532754 5.244172 0.190553 -0.748037 -1.421209
30 2 9.054538 7.622744 6.976544 0.933223 -1.264727 1.460982
Energy
-169.828065450000
PlusStress: xx yy zz yz xz xy
0.002216 0.001662 0.001287 -0.000493 0.000819 -0.000036
Feature EFS_by vasp
Feature from database:p.cfg
Feature mindist 2.70
END_CFG

BEGIN_CFG
Size
30
Supercell
19.000000 0.000000 0.000000
0.000000 15.000000 0.000000
0.000000 0.000000 16.000000
AtomData: id type cartes_x cartes_y cartes_z fx fy fz
1 0 12.391299 8.069562 6.651656 -1.311220 -0.031473 -0.006142
2 0 11.947545 7.211315 7.811907 -1.610177 -0.608182 0.030660
3 0 11.329560 7.872703 9.033233 1.378692 1.321781 0.198704
4 0 9.994862 8.573064 9.063580 0.164023 -0.111054 -0.019399
5 0 8.962411 7.666423 8.488603 -1.267337 0.501942 1.908297
6 0 7.533004 8.190408 8.678936 -0.150615 0.510271 -0.500828
7 0 6.672305 7.004834 8.292511 0.339946 0.253391 -0.230703
8 0 7.175625 9.559390 8.025448 -0.020817 -0.855950 0.142962
9 0 9.942009 6.671458 6.540014 -0.438849 -1.704484 -0.872272
10 0 11.006982 6.021274 7.390974 0.453778 0.715782 -0.516945
11 1 11.531944 8.410240 6.039697 0.314839 0.254112 0.172193
12 1 12.991976 8.903195 6.992137 0.277623 0.428994 0.032286
13 1 12.955799 7.410603 6.031466 0.848548 -0.333623 -0.928450
14 1 12.820237 6.753818 8.194165 1.388872 -0.699262 0.601954
15 1 11.372030 7.075462 9.767266 -0.244814 -0.127673 0.791271
16 1 12.021954 8.666969 9.345349 0.536810 -0.146996 0.314746
17 1 9.931889 9.444504 8.387199 0.469655 0.284735 0.439389
18 1 9.834200 8.867017 10.138513 -0.307700 -0.075745 -0.846620
19 1 9.000318 6.656516 8.978275 0.055881 0.384675 -0.388206
20 1 7.471175 8.360090 9.738808 -0.302622 0.114941 1.008456
21 1 6.945710 6.253414 9.045032 -0.337449 -0.572509 -0.394416
22 1 6.984118 6.747513 7.262964 -0.295322 -0.482318 0.266228
23 1 5.606130 7.164029 8.300600 -0.678126 0.211869 0.104315
24 1 6.146088 9.808244 8.255828 -0.544309 0.043273 0.360223
25 1 7.779633 10.368850 8.397629 0.514366 0.508418 0.462368
26 1 7.221492 9.640700 6.947610 0.281818 -0.505173 -0.678132
27 1 10.628541 5.441456 8.251065 -0.000893 0.331929 0.024468
28 1 11.500743 5.301804 6.720413 0.088812 0.122333 0.066706
29 2 9.825732 6.346662 5.356510 -0.257842 0.990895 0.752737
30 2 9.121215 7.603590 7.110033 0.629598 -0.727281 -2.309141
Energy
-169.707291530000
PlusStress: xx yy zz yz xz xy
-0.001550 0.000692 -0.000608 -0.000532 0.000048 -0.000412
Feature EFS_by vasp
Feature from database:p.cfg
Feature mindist 2.70
END_CFG

BEGIN_CFG
Size
30
Supercell
19.000000 0.000000 0.000000
0.000000 15.000000 0.000000
0.000000 0.000000 16.000000
AtomData: id type cartes_x cartes_y cartes_z fx fy fz
1 0 12.381346 8.093155 6.678549 1.003535 -0.828906 0.443892
2 0 12.011833 7.148994 7.878836 0.687418 0.051709 0.044962
3 0 11.520562 8.011863 9.080935 0.098226 -0.633735 -0.671533
4 0 10.182138 8.688905 8.764339 -0.392764 -0.275195 0.829432
5 0 9.065639 7.679546 8.543031 -1.446236 1.197661 -1.787021
6 0 7.621593 8.218932 8.772917 -0.643507 0.094534 0.271033
7 0 6.455702 7.188126 8.433735 0.402355 1.535584 1.276508
8 0 7.176040 9.507819 8.036105 -0.722666 0.792391 0.086995
9 0 9.889865 6.603448 6.501953 0.517900 -2.196137 -2.080114
10 0 10.992622 6.131542 7.333138 1.214793 -1.564875 1.223453
11 1 11.501765 8.693257 6.427746 0.004915 0.139545 -0.167415
12 1 13.204606 8.766957 7.008280 -0.291381 -0.150170 -0.365121
13 1 12.699396 7.520131 5.754300 -0.244389 0.489772 0.864911
14 1 12.892447 6.534107 8.274704 -0.654609 0.755552 -0.720963
15 1 11.322082 7.353980 9.960381 0.131262 0.103277 -0.313070
16 1 12.340491 8.691605 9.416548 -0.496030 -0.017212 -0.349057
17 1 10.075819 9.416408 7.944966 0.614710 -0.023226 0.027321
18 1 9.922900 9.213180 9.673242 -0.332219 0.640070 0.563513
19 1 9.149989 6.760670 9.111038 0.297204 -0.519583 0.139548
20 1 7.540304 8.455547 9.875817 0.186890 -0.308071 -0.645352
21 1 6.585853 6.217408 8.935577 -0.023941 -0.079275 -0.433876
22 1 6.248071 7.184704 7.360320 0.276680 -0.548660 -0.120240
23 1 5.579206 7.709382 8.892734 0.146793 -0.649631 -0.139968
24 1 6.098923 9.650599 8.318150 0.569093 0.114815 0.154432
25 1 7.667602 10.497157 8.286049 -0.042846 -1.044006 -0.232205
26 1 7.058727 9.392255 6.937699 0.686539 -0.060816 0.235994
27 1 10.543063 5.482807 8.124567 0.133460 0.441072 0.125562
28 1 11.498049 5.368439 6.731196 0.370408 0.186044 -0.221475
29 2 9.724216 6.152185 5.356481 -0.096920 0.851105 0.488115
30 2 9.017113 7.371708 7.060068 -1.956110 1.500953 1.444454
Energy
-169.735510110000
PlusStress: xx yy zz yz xz xy
0.000708 0.000911 0.001654 -0.000188 0.000672 0.000579
Feature EFS_by vasp
Feature from database:p.cfg
Feature mindist 2.70
END_CFG

BEGIN_CFG
Size
30
Supercell
19.000000 0.000000 0.000000
0.000000 15.000000 0.000000
0.000000 0.000000 16.000000
AtomData: id type cartes_x cartes_y cartes_z fx fy fz
1 0 12.585683 8.106251 6.653989 -0.393455 0.406334 0.302453
2 0 12.049318 7.208645 7.730927 -1.683286 0.320904 0.830167
3 0 11.420126 8.035479 8.898031 0.567615 -0.565980 0.711926
4 0 10.078205 8.758313 8.652478 0.249178 -0.362376 0.199304
5 0 8.930826 7.735230 8.438522 -0.345567 -0.232849 1.361319
6 0 7.515544 8.308341 8.764842 0.677285 1.345813 0.509002
7 0 6.392615 7.227329 8.840864 1.411353 1.190573 -0.781872
8 0 7.396915 9.732019 8.072818 -1.205051 -1.527438 -0.453744
9 0 9.833099 6.434700 6.472058 1.227777 0.778047 3.196565
10 0 11.053179 6.112850 7.298071 0.734910 -0.678655 -0.250702
11 1 11.796711 8.783222 6.280922 0.205708 -0.101446 -0.157020
12 1 13.380336 8.705680 7.091331 0.271802 0.432009 0.075639
13 1 13.022482 7.556010 5.848753 0.257771 -0.496931 -0.959039
14 1 12.835154 6.649144 8.215148 0.816901 -0.250933 0.116710
15 1 11.384290 7.288540 9.735192 -0.674429 0.413793 -0.222265
16 1 12.182150 8.721641 9.296677 0.040746 0.409059 -0.298285
17 1 10.169841 9.429324 7.782340 -0.056629 -0.080263 -0.038513
18 1 9.823631 9.441520 9.520091 0.225953 -0.760164 -0.570178
19 1 9.097707 6.930531 9.227341 -0.057452 0.272545 -0.830940
20 1 7.688656 8.586117 9.813559 -0.130203 0.070234 0.399352
21 1 6.872149 6.430389 9.410220 -0.273464 -0.523450 0.083770
22 1 6.159231 6.899568 7.825957 -0.379240 -0.290411 -0.022408
23 1 5.532872 7.610034 9.387179 -0.326670 0.033097 -0.045263
24 1 6.538060 10.357616 8.312564 -0.710068 -0.332374 0.346575
25 1 8.206248 10.320567 8.429947 1.105937 0.592320 0.094807