BEGIN_CFG
Size
18
Supercell
15.000000 0.000000 0.000000
0.000000 17.000000 0.000000
0.000000 0.000000 14.250000
AtomData: id type cartes_x cartes_y cartes_z fx fy fz
1 0 6.923122 10.424872 7.741400 0.789399 0.591802 -0.381772
2 0 7.696222 9.463872 6.805400 -0.533039 -1.494105 2.603221
3 0 8.452222 8.419872 7.725400 -0.166938 0.215325 -1.353507
4 0 8.493222 7.078472 6.991400 -1.408468 -0.411465 2.277370
5 0 6.981322 6.663672 6.928400 2.332592 0.538752 -1.466497
6 0 6.591422 8.791872 5.912700 0.812679 3.543868 -2.593258
7 1 6.242622 9.827872 8.349400 -0.152908 0.075580 0.386160
8 1 6.342822 11.189872 7.201400 0.077646 -0.205740 -0.065913
9 1 7.670222 10.959872 8.362400 -0.346033 -0.199007 0.164173
10 1 8.520222 10.001872 6.328700 -0.503360 0.042617 -1.103794
11 1 7.846222 8.232872 8.606400 -0.028294 0.145826 0.626435
12 1 9.442222 8.765872 8.049400 0.046306 0.200653 -0.106788
13 1 8.951222 7.077472 6.026300 0.226576 0.076332 -0.966502
14 1 9.027222 6.383172 7.614400 0.552539 -0.719679 0.447654
15 1 6.434222 7.044572 7.775400 -0.393232 0.226402 0.507788
16 1 6.818522 5.572072 6.890400 -0.208757 0.311927 -0.823285
17 2 6.580422 7.395972 5.700400 -1.882507 1.438756 0.486313
18 2 5.986522 9.705872 5.240700 0.772197 -4.358721 1.346990
Energy
-103.254358190000
PlusStress: xx yy zz yz xz xy
0.001319 0.002631 0.000085 -0.000685 -0.000038 0.000002
Feature EFS_by vasp
Feature from database:p.cfg
Feature mindist 2.70
END_CFG

BEGIN_CFG
Size
18
Supercell
15.000000 0.000000 0.000000
0.000000 17.000000 0.000000
0.000000 0.000000 14.250000
AtomData: id type cartes_x cartes_y cartes_z fx fy fz
1 0 7.030914 10.587717 7.797820 -1.220254 -0.722351 -0.767607
2 0 7.620149 9.454378 6.914249 1.350475 -0.600608 -0.223944
3 0 8.419103 8.401353 7.794547 -0.722808 -0.357102 1.202266
4 0 8.469156 6.904813 7.248963 -0.145310 1.785197 -1.086273
5 0 7.137174 6.525696 6.571731 -0.986034 0.268555 1.848715
6 0 6.593998 8.904156 5.858489 2.311237 -0.447166 2.437066
7 1 6.201632 10.147039 8.423242 0.608478 0.276984 -0.267947
8 1 6.517436 11.296512 7.096921 0.551828 -0.001902 0.663848
9 1 7.763703 11.047460 8.483722 -0.078406 0.040305 -0.405812
10 1 8.468146 9.837651 6.284415 -0.837463 0.341315 -0.004742
11 1 7.973409 8.503995 8.861517 0.625877 -0.625517 -1.304797
12 1 9.476245 8.756033 7.863605 -0.543516 -0.094388 0.150719
13 1 9.239662 6.922659 6.411507 -0.383102 -0.288571 0.979314
14 1 8.725425 6.149052 8.039204 -0.078811 0.559958 -0.620885
15 1 6.390853 6.220399 7.358469 0.537287 0.007138 -0.418800
16 1 7.301278 5.646200 5.933014 -0.323555 0.367724 -0.513384
17 2 6.368646 7.585803 5.851011 0.527206 -1.957039 -0.376446
18 2 6.050845 9.597509 5.057246 -1.203287 1.453714 -1.308921
Energy
-103.901855770000
PlusStress: xx yy zz yz xz xy
0.002033 0.001513 0.001943 0.000385 -0.000162 -0.000444
Feature EFS_by vasp
Feature from database:p.cfg
Feature mindist 2.70
END_CFG

BEGIN_CFG
Size
18
Supercell
15.000000 0.000000 0.000000
0.000000 17.000000 0.000000
0.000000 0.000000 14.250000
AtomData: id type cartes_x cartes_y cartes_z fx fy fz
1 0 7.135842 10.644759 7.598876 0.743050 -0.959046 0.980919
2 0 7.700572 9.374195 6.964139 0.193553 -0.685067 0.426262
3 0 8.068066 8.239557 7.988175 0.957981 1.041551 -1.375827
4 0 8.476177 7.044129 7.135565 -1.588321 0.862729 0.408171
5 0 7.166262 6.557562 6.499086 0.838848 -0.409187 -0.350275
6 0 6.739262 8.891017 5.877335 -1.380830 0.016945 0.252779
7 1 6.278677 10.469035 8.249117 -0.483998 -0.442779 -0.052506
8 1 6.837191 11.352768 6.860606 0.055720 0.918932 -0.603769
9 1 7.903636 10.964736 8.311827 0.177123 0.714462 -0.192602
10 1 8.667793 9.560821 6.481641 0.049725 0.549473 -0.314692
11 1 7.237909 8.086544 8.614197 -1.522628 -0.715522 0.969735
12 1 8.875358 8.516268 8.668767 0.330642 0.507986 -0.034095
13 1 9.138147 7.446902 6.373822 0.531256 -0.248833 -0.368449
14 1 8.977407 6.292148 7.739569 0.045674 -0.531515 -0.090114
15 1 6.575471 6.006998 7.227826 -0.380444 -0.013632 0.299839
16 1 7.416754 5.860526 5.694222 -0.213559 -0.140708 -0.352457
17 2 6.315761 7.595463 5.914736 0.913700 -0.939198 0.337919
18 2 6.101293 9.606178 5.118948 0.724196 0.464265 0.058428
Energy
-104.221145930000
PlusStress: xx yy zz yz xz xy
0.000614 -0.000521 0.000484 -0.000104 0.000670 -0.000742
Feature EFS_by vasp
Feature from database:p.cfg
Feature mindist 2.70
END_CFG

BEGIN_CFG
Size
18
Supercell
15.000000 0.000000 0.000000
0.000000 17.000000 0.000000
0.000000 0.000000 14.250000
AtomData: id type cartes_x cartes_y cartes_z fx fy fz
1 0 7.259294 10.759922 7.572735 0.334359 0.135048 -0.972625
2 0 7.637706 9.359522 7.021063 0.778498 -0.215058 0.328430
3 0 7.993518 8.292640 8.048852 -1.314923 -0.099624 1.011704
4 0 8.301237 7.042792 7.218740 0.678628 -0.444806 1.274361
5 0 7.147861 6.484242 6.401620 1.359927 -0.638890 0.016036
6 0 6.732142 8.842601 5.911213 -1.616235 0.810325 0.134125
7 1 6.244165 10.916197 7.994381 0.256279 -0.514643 -0.242298
8 1 7.365109 11.436940 6.682135 -0.123923 -0.056648 0.909662
9 1 7.998156 11.014116 8.361378 -0.172462 0.088569 -0.331232
10 1 8.601995 9.479293 6.475742 -0.107540 0.345472 0.013922
11 1 7.115020 8.157424 8.784277 0.829067 -0.155295 -0.949691
12 1 8.826126 8.618793 8.728063 -0.240759 -0.254541 -0.671706
13 1 9.178866 7.283176 6.569030 -0.411863 -0.218259 0.170780
14 1 8.601713 6.231242 7.902932 0.273115 -0.055612 -0.130244
15 1 6.459848 5.823407 6.985631 0.103986 0.607206 -0.181616
16 1 7.633545 5.855660 5.619767 -0.413197 -0.101097 0.207985
17 2 6.448015 7.487905 5.711529 -0.517620 1.699442 -0.397821
18 2 6.122743 9.674622 5.246185 0.281978 -0.927985 -0.208843
Energy
-104.189144600000
PlusStress: xx yy zz yz xz xy
0.000913 0.001231 0.001462 0.000675 -0.000631 0.000484
Feature EFS_by vasp
Feature from database:p.cfg
Feature mindist 2.70
END_CFG

BEGIN_CFG
Size
18
Supercell
15.000000 0.000000 0.000000
0.000000 17.000000 0.000000
0.000000 0.000000 14.250000
AtomData: id type cartes_x cartes_y cartes_z fx fy fz
1 0 7.333241 10.663824 7.615624 0.089125 -0.033351 0.047998
2 0 7.645989 9.383328 6.898135 1.563220 -1.011272 0.115338
3 0 7.871171 8.260066 7.916940 1.035673 0.322844 1.125792
4 0 8.198998 6.840117 7.479072 1.101579 0.625276 -0.836452
5 0 7.126889 6.499429 6.503023 -0.958822 1.397758 -0.318829
6 0 6.694943 8.948245 5.853416 1.297878 -0.971820 1.366095
7 1 6.488609 10.502034 8.290471 -0.145081 0.183825 0.213605
8 1 7.095809 11.459210 6.927164 -0.261141 0.451212 -0.415519
9 1 8.217705 10.968556 8.177504 0.071598 0.122600 0.358169
10 1 8.626243 9.477500 6.355267 -0.431588 0.130524 0.071969
11 1 7.017949 8.242108 8.589858 -0.496589 -0.064408 0.355714
12 1 8.723573 8.588376 8.516446 0.102189 0.188805 0.503072
13 1 9.231170 6.817445 7.023997 -0.683256 -0.090784 0.195709
14 1 8.214760 6.170354 8.363168 -0.135102 0.063329 -0.336209
15 1 6.199766 6.477105 7.070162 -0.517666 -0.650466 0.167651
16 1 7.233173 5.630224 5.865823 0.136228 -0.282031 -0.236293
17 2 6.811555 7.629178 5.538000 -0.174691 -1.202336 -0.805230
18 2 5.970722 9.703716 5.283378 -1.592833 0.830952 -1.589867
Energy
-104.136788810000
PlusStress: xx yy zz yz xz xy
-0.000085 0.000336 -0.000676 -0.000593 -0.000694 -0.000293
Feature EFS_by vasp
Feature from database:p.cfg
Feature mindist 2.70
END_CFG

BEGIN_CFG
Size
18
Supercell
15.000000 0.000000 0.000000
0.000000 17.000000 0.000000
0.000000 0.000000 14.250000
AtomData: id type cartes_x cartes_y cartes_z fx fy fz
1 0 7.311814 10.710384 7.433969 1.071246 0.559981 1.094302
2 0 7.696852 9.287864 7.049113 -0.102286 0.200573 0.233332
3 0 7.851308 8.212074 8.209586 -0.330613 0.161348 -1.540679
4 0 8.073251 6.885030 7.400773 -1.110235 0.144214 1.090977
5 0 6.913194 6.648174 6.413085 0.705459 -0.627115 0.611361
6 0 6.817548 8.890527 5.910657 -1.868034 0.985062 -1.717448
7 1 6.473123 10.607185 8.146512 0.124528 0.612381 -0.076759
8 1 7.056626 11.394796 6.602107 -0.183155 -0.649255 0.106254
9 1 8.207259 11.211183 7.906277 -0.788938 -0.420581 0.189887
10 1 8.707539 9.283748 6.621123 0.234794 0.101360 -0.293356
11 1 6.938767 8.101148 8.859693 0.680075 0.345411 -0.373305
12 1 8.728383 8.619361 8.755670 -0.339345 -0.749893 0.302102
13 1 8.971339 6.929165 6.817520 0.857377 0.196799 -0.534230
14 1 8.183930 5.995271 8.021118 -0.063380 -0.170669 0.509360
15 1 5.894040 6.732842 6.870233 0.499973 -0.416499 0.018124
16 1 7.064288 5.661242 5.916562 -0.348792 0.418547 0.215255
17 2 6.982113 7.626557 5.384691 -0.418804 0.663785 -0.496624
18 2 6.007221 9.664341 5.364793 1.365288 -1.358919 0.647670
Energy
-103.993861830000
PlusStress: xx yy zz yz xz xy
0.001359 0.001087 0.000501 -0.000021 0.000056 -0.000106
Feature EFS_by vasp
Feature from database:p.cfg
Feature mindist 2.70
END_CFG

BEGIN_CFG
Size
18
Supercell
15.000000 0.000000 0.000000
0.000000 17.000000 0.000000
0.000000 0.000000 14.250000
AtomData: id type cartes_x cartes_y cartes_z fx fy fz
1 0 7.443250 10.675470 7.688754 0.082548 -0.008718 -1.603901
2 0 7.807485 9.333700 6.981376 -1.006883 1.029457 -0.487293
3 0 7.737758 8.266168 8.114389 -0.299472 0.566320 -1.505551
4 0 7.946051 6.905938 7.523226 2.366476 -1.139081 0.334181
5 0 7.087847 6.517459 6.355629 -0.487166 0.333403 -0.261009
6 0 6.797625 8.941495 5.808154 0.775954 -0.196892 1.834791
7 1 6.379952 10.723605 7.938597 -0.107155 0.044294 0.069830
8 1 7.722313 11.565645 7.103563 -0.316412 -0.104855 -0.265511
9 1 8.044147 10.764970 8.568686 0.409656 -0.089184 1.054227
10 1 8.764074 9.508267 6.408339 -0.245455 -0.646017 0.797796
11 1 6.724731 8.429703 8.508249 -0.022198 -0.285150 0.452957
12 1 8.487375 8.491216 8.871917 0.070094 0.011606 0.312750
13 1 9.041571 6.935241 7.146798 -1.245696 -0.236065 0.406012
14 1 7.940772 6.092205 8.293323 -0.127302 0.359964 -0.355773
15 1 6.117174 6.018003 6.580774 0.269218 0.351737 0.308499
16 1 7.617252 5.843277 5.690224 0.292915 -0.467061 -0.129748
17 2 6.763044 7.633677 5.496482 -0.249248 -0.802640 -0.610224
18 2 6.070767 9.662820 5.175103 -0.162658 1.285417 -0.353557
Energy
-104.086901650000
PlusStress: xx yy zz yz xz xy
0.001108 -0.000141 0.000953 0.000129 -0.000254 0.000783
Feature EFS_by vasp
Feature from database:p.cfg
Feature mindist 2.70
END_CFG

BEGIN_CFG
Size
18
Supercell
15.000000 0.000000 0.000000
0.000000 17.000000 0.000000
0.000000 0.000000 14.250000
AtomData: id type cartes_x cartes_y cartes_z fx fy fz
1 0 7.433969 10.712696 7.454223 -0.561417 1.254117 2.241927
2 0 7.646679 9.265565 7.154120 -0.223931 -0.595301 -1.864039
3 0 7.504913 8.071155 8.114866 0.977688 1.058921 1.081108
4 0 8.135863 6.808829 7.480663 -1.765195 1.419716 0.360543
5 0 7.195379 6.521961 6.344536 -0.396348 -0.795087 -2.058937
6 0 6.805691 9.018059 5.900782 -0.156711 -0.943754 -0.973773
7 1 6.352320 10.858215 7.689467 0.428740 0.179302 0.116493
8 1 7.605925 11.322717 6.560105 0.210813 -0.064775 0.044909
9 1 8.036578 11.131450 8.333744 -0.548918 -0.588787 -0.977528
10 1 8.650556 9.192154 6.720507 0.575926 -0.140824 0.072392
11 1 6.466167 7.863986 8.413583 -0.072140 0.113968 -0.107045
12 1 8.039704 8.386893 9.034835 -0.091098 -0.362599 -0.010574
13 1 9.121933 7.009535 7.141038 1.217851 0.294798 -0.364189
14 1 8.177184 6.036592 8.237550 -0.115979 -0.665689 0.089658
15 1 6.377744 5.836497 6.604357 -0.256736 0.276895 0.418720
16 1 7.631012 6.018923 5.448346 0.369789 0.098210 0.557668
17 2 6.530003 7.673537 5.660646 0.106112 0.379877 0.324913
18 2 6.400782 9.849299 5.085642 0.293856 -0.915783 1.038773
Energy
-104.022351540000
PlusStress: xx yy zz yz xz xy
0.000453 0.001222 0.000784 -0.000776 0.000466 -0.000256
Feature EFS_by vasp
Feature from database:p.cfg
Feature mindist 2.70
END_CFG

BEGIN_CFG
Size
18
Supercell
15.000000 0.000000 0.000000
0.000000 17.000000 0.000000
0.000000 0.000000 14.250000
AtomData: id type cartes_x cartes_y cartes_z fx fy fz
1 0 7.301173 10.678986 7.699303 -0.141960 -0.427956 -1.185783
2 0 7.712380 9.302161 7.069897 -1.149384 0.331052 0.843135
3 0 7.599870 8.206667 8.153766 -0.452963 -0.142703 -1.131242
4 0 7.952272 6.864775 7.493327 1.789089 -0.819349 0.004837
5 0 7.104053 6.475173 6.259857 -1.591494 1.394046 1.435057
6 0 6.856298 8.960583 5.852383 0.777501 0.081897 -1.195123
7 1 6.333645 10.637496 8.204045 -0.362224 -0.282966 -0.087479
8 1 7.248235 11.493823 6.959261 0.116229 -0.191917 0.020908
9 1 7.996671 10.939876 8.468165 0.878796 0.288399 0.626713
10 1 8.725504 9.365044 6.612089 -0.079340 -0.014813 0.510080
11 1 6.556732 8.153511 8.537745 0.157638 0.174463 -0.240059
12 1 8.199594 8.481006 9.028912 0.381728 -0.342076 -0.013711
13 1 9.056417 6.901316 7.164301 -1.188777 -0.109722 0.561028
14 1 7.840062 6.056084 8.257500 0.289287 0.207683 -0.472859
15 1 6.236272 5.882510 6.580750 -0.049788 -0.155762 0.198092
16 1 7.529203 5.913459 5.445723 0.985060 -0.174456 -0.341274
17 2 6.447813 7.634916 5.641631 0.235580 1.242213 -0.297600
18 2 6.676493 9.809852 4.977910 -0.591329 -1.060095 0.760829
Energy
-104.190620880000
PlusStress: xx yy zz yz xz xy
0.000656 0.001876 0.001459 0.000386 -0.000516 0.000306
Feature EFS_by vasp
Feature from database:p.cfg
Feature mindist 2.70
END_CFG

BEGIN_CFG
Size
18
Supercell
15.000000 0.000000 0.000000
0.000000 17.000000 0.000000
0.000000 0.000000 14.250000
AtomData: id type cartes_x cartes_y cartes_z fx fy fz
1 0 7.165787 10.590491 7.784537 -0.233282 0.532347 0.462618
2 0 7.743107 9.358504 7.090977 -0.755688 -1.695739 0.441435
3 0 7.709963 8.152944 8.129412 0.799039 1.093700 0.118898
4 0 7.863733 6.812371 7.487478 -0.663119 -0.096166 0.142885
5 0 6.796993 6.608623 6.479471 -0.897027 -0.625666 -1.990900
6 0 6.978130 8.971243 5.775436 0.573423 -0.732368 0.880673
7 1 6.087698 10.467942 8.033410 0.326801 -0.163996 -0.194671
8 1 7.225237 11.493491 7.152499 0.156444 -0.110853 0.165823
9 1 7.667093 10.773882 8.783512 -0.160078 -0.101753 -0.959369
10 1 8.785566 9.553884 6.733074 -0.397996 -0.173821 0.312893
11 1 6.786109 8.130566 8.712714 -0.480640 0.394232 -0.051961
12 1 8.492044 8.344166 8.885762 0.070134 -0.075771 -0.091474
13 1 8.773791 6.740771 6.945567 1.460991 -0.167269 -0.401575
14 1 7.791527 5.978054 8.194002 0.187239 -0.056465 0.254189
15 1 5.760774 6.528870 6.854737 0.206569 -0.172086 0.361694
16 1 7.010102 5.740027 5.808267 -0.223671 0.011590 0.737108
17 2 6.711842 7.648493 5.449016 0.427094 0.913512 0.810519
18 2 6.697797 9.796425 4.953474 -0.394753 1.233266 -1.003639
Energy
-104.362242150000
PlusStress: xx yy zz yz xz xy
0.000372 0.000448 0.001098 0.000343 -0.000031 0.000432
Feature EFS_by vasp
Feature from database:p.cfg
Feature mindist 2.70
END_CFG

BEGIN_CFG
Size
18
Supercell
15.000000 0.000000 0.000000
0.000000 17.000000 0.000000
0.000000 0.000000 14.250000
AtomData: id type cartes_x cartes_y cartes_z fx fy fz
1 0 7.049730 10.579681 7.623251 0.490800 -0.662065 0.576608
2 0 7.649731 9.206376 7.213643 0.380107 1.351137 -0.837432
3 0 7.795811 8.050710 8.229772 -1.448786 0.508020 0.589558
4 0 7.804987 6.734573 7.492680 0.438897 -1.279127 -0.842537
5 0 6.671784 6.751379 6.464119 0.450450 0.902313 -0.354083
6 0 7.100810 8.972663 5.792829 -1.978258 1.585899 -1.297040
7 1 5.987034 10.536811 7.841859 -0.478791 -0.210046 -0.043791
8 1 7.210819 11.273734 6.813764 -0.063829 0.325964 -0.498235
9 1 7.523390 11.011062 8.496589 0.395746 -0.005141 0.571916
10 1 8.682037 9.403097 6.926209 0.717153 0.435188 -0.059985
11 1 6.892976 8.074953 8.905791 0.582486 -0.051026 -0.278392
12 1 8.687618 8.196348 8.877433 -0.316340 0.016302 -0.288429
13 1 8.836207 6.563290 6.995880 -1.428399 -0.024060 0.530097
14 1 7.529461 5.854911 8.133676 0.669839 0.494551 -0.053533
15 1 5.725550 7.056742 6.922069 -0.290905 -0.470357 0.457626
16 1 6.539361 5.919906 5.802919 -0.069970 -1.454074 0.345783
17 2 6.838348 7.733072 5.411906 0.529459 -0.633869 -0.303537
18 2 6.757905 9.852380 4.963010 1.422428 -0.826726 1.781151
Energy
-103.950957960000
PlusStress: xx yy zz yz xz xy
0.001209 -0.000523 0.001123 -0.000550 0.000351 -0.000806
Feature EFS_by vasp
Feature from database:p.cfg
Feature mindist 2.70
END_CFG

BEGIN_CFG
Size
18
Supercell
15.000000 0.000000 0.000000
0.000000 17.000000 0.000000
0.000000 0.000000 14.250000
AtomData: id type cartes_x cartes_y cartes_z fx fy fz
1 0 7.120051 10.499308 7.900069 0.404524 1.674632 0.423347
2 0 7.704185 9.332010 7.124740 1.243653 0.598863 -1.272487
3 0 7.579585 8.215845 8.075018 0.499543 -1.873943 0.937280
4 0 7.697836 6.815130 7.502035 -1.457170 -0.902824 0.277361
5 0 6.675778 6.580937 6.408472 0.304309 1.038943 -1.044962
6 0 7.151039 9.013587 5.755729 -1.174853 -2.090875 0.947955
7 1 6.114743 10.246175 8.328827 0.585448 0.374657 -0.411961
8 1 7.138531 11.535836 7.462110 -0.292765 -0.949797 -0.259978
9 1 7.844269 10.616048 8.744233 -0.611886 -0.075334 0.026042
10 1 8.805327 9.536973 6.905903 -0.898619 -0.048395 0.173385
11 1 6.605285 8.340777 8.529084 -0.516712 -0.311750 0.582444
12 1 8.347491 8.355507 8.844228 -0.104374 -0.084393 0.394748
13 1 8.699100 6.620091 7.160298 0.698854 -0.235832 -0.407813
14 1 7.402595 6.014107 8.203745 0.561388 0.269404 0.595818
15 1 5.607968 6.596932 6.707885 0.320902 -0.417137 0.534268
16 1 6.869020 5.700290 5.753228 -0.062406 0.085243 0.617501
17 2 6.739196 7.675230 5.466243 0.453499 1.554187 -0.704587
18 2 6.976699 9.809541 4.888671 0.039355 1.402442 -1.429367
Energy
-103.954067230000
PlusStress: xx yy zz yz xz xy
0.001191 0.000241 -0.000855 0.001323 -0.000070 0.000679
Feature EFS_by vasp
Feature from database:p.cfg
Feature mindist 2.70
END_CFG

BEGIN_CFG
Size
18
Supercell
15.000000 0.000000 0.000000
0.000000 17.000000 0.000000
0.000000 0.000000 14.250000
AtomData: id type cartes_x cartes_y cartes_z fx fy fz
1 0 7.210062 10.673665 7.595603 -0.053559 -0.726863 0.863701
2 0 7.566491 9.226138 7.224808 0.583795 -0.534126 0.847713
3 0 7.400410 8.031622 8.206441 0.788920 0.754314 0.877351
4 0 7.770172 6.797330 7.427463 -0.245184 -0.948053 -0.459408
5 0 6.723697 6.609853 6.377702 -0.643727 -0.043430 -1.595476
6 0 7.100932 8.935585 5.839503 -0.284579 1.371065 -0.197621
7 1 6.137413 10.763343 7.650823 -0.741708 0.248528 0.294735
8 1 7.544067 11.369337 6.857838 0.291158 0.334398 -0.950205
9 1 7.679365 11.028911 8.517849 -0.080686 -0.361197 0.443050
10 1 8.637860 9.253707 7.022508 0.709212 -0.038127 0.168174
11 1 6.396791 7.964858 8.698131 0.508510 0.013905 -0.330446
12 1 8.190463 8.109352 8.978590 -0.494473 0.383640 0.316978
13 1 8.785400 6.890288 6.953225 -0.616821 0.126938 0.150621
14 1 7.828082 5.839353 7.976131 -0.113964 0.301869 0.417965
15 1 5.663495 6.515071 6.652437 0.126119 -0.238594 1.007042
16 1 6.891790 5.773035 5.697326 0.354214 -0.373155 -0.037266
17 2 6.644240 7.736363 5.449082 0.348365 0.205536 -0.428633
18 2 7.169270 9.888969 5.078972 -0.441989 -0.462719 -1.401239
Energy
-104.082919150000
PlusStress: xx yy zz yz xz xy
0.000684 0.000584 -0.001310 -0.000006 -0.000179 -0.000032
Feature EFS_by vasp
Feature from database:p.cfg
Feature mindist 2.70
END_CFG

BEGIN_CFG
Size
18
Supercell
15.000000 0.000000 0.000000
0.000000 17.000000 0.000000
0.000000 0.000000 14.250000
AtomData: id type cartes_x cartes_y cartes_z fx fy fz
1 0 7.246108 10.525623 7.762275 0.025728 2.104389 -0.142129
2 0 7.663089 9.203969 7.168812 1.534814 1.047548 1.625496
3 0 7.296223 8.106298 8.189012 0.371474 -0.943878 -1.431202
4 0 7.617651 6.708010 7.584727 -0.864536 -0.494861 0.153934
5 0 6.788642 6.601334 6.296842 -0.656657 0.149329 -0.136054
6 0 7.197797 9.063432 5.785809 -0.972676 -0.701516 -2.120741
7 1 6.150351 10.788102 7.772012 0.691016 -0.638965 0.059539
8 1 7.731910 11.371790 7.210965 -0.319495 -0.428044 0.182170
9 1 7.668318 10.570584 8.775975 -0.306471 0.142191 0.175171
10 1 8.785836 9.302325 7.114262 -0.504772 -0.345522 -0.064047
11 1 6.210531 8.185445 8.312441 -0.266294 -0.208465 0.248762
12 1 7.753955 8.283694 9.169126 0.196288 0.062726 -0.085821
13 1 8.678350 6.444106 7.390705 -0.125801 0.683578 0.075708
14 1 7.268247 5.897812 8.268089 0.047488 0.303460 -0.204475
15 1 5.719083 6.395182 6.435338 -0.154332 -0.173987 0.871086
16 1 7.039911 5.811969 5.568967 0.755523 0.096459 0.142461
17 2 6.687829 7.821999 5.526169 0.172924 0.048257 -1.227019
18 2 7.144110 9.881039 4.851524 0.368811 -0.699263 1.850054
Energy
-104.093142780000
PlusStress: xx yy zz yz xz xy
0.000955 0.000648 0.001058 -0.000684 0.000062 -0.000484
Feature EFS_by vasp
Feature from database:p.cfg
Feature mindist 2.70
END_CFG

BEGIN_CFG
Size
18
Supercell
15.000000 0.000000 0.000000
0.000000 17.000000 0.000000
0.000000 0.000000 14.250000
AtomData: id type cartes_x cartes_y cartes_z fx fy fz
1 0 7.394784 10.647716 7.803524 -0.695805 -0.667266 -0.323631
2 0 7.647289 9.204251 7.271174 0.856310 0.948173 0.407777
3 0 7.154643 8.125476 8.174098 -0.156514 -0.444710 1.218403
4 0 7.429128 6.801152 7.517060 0.149784 -0.332486 0.311454
5 0 6.725932 6.634203 6.226401 -0.806938 -1.705046 -1.238885
6 0 7.205771 8.980562 5.840827 -0.147832 -1.199045 -0.069368
7 1 6.347566 10.699200 8.105102 -0.437894 -0.082847 0.326007
8 1 7.423985 11.398339 7.010822 0.685828 0.128358 -0.095035
9 1 7.983318 10.896896 8.705377 0.133411 -0.068039 -0.458303
10 1 8.745371 9.017305 7.309543 -0.100512 0.337121 -0.605123
11 1 6.102022 8.269282 8.493360 0.087940 -0.166758 -0.250430
12 1 7.758409 8.105543 9.097306 -0.189376 0.363297 0.165959
13 1 8.485259 6.732221 7.251619 0.583525 0.123599 0.247928
14 1 7.257402 6.005582 8.237213 -0.317789 -0.572077 -0.016314
15 1 5.637922 6.418891 6.268405 0.098376 0.081556 0.423881
16 1 7.156342 5.808676 5.609818 -0.143620 -0.036179 0.551507
17 2 6.870924 7.739575 5.352861 0.200456 0.379573 0.670292
18 2 7.156966 9.806007 4.986178 0.201869 2.919662 -1.277015
Energy
-104.175741680000
PlusStress: xx yy zz yz xz xy
0.000288 -0.001397 0.000047 0.001427 0.000288 -0.000487
Feature EFS_by vasp
Feature from database:p.cfg
Feature mindist 2.70
END_CFG

BEGIN_CFG
Size
18
Supercell
15.000000 0.000000 0.000000
0.000000 17.000000 0.000000
0.000000 0.000000 14.250000
AtomData: id type cartes_x cartes_y cartes_z fx fy fz
1 0 7.388682 10.565309 7.699515 -1.147304 0.432642 0.048207
2 0 7.651617 9.160879 7.194724 -0.138359 -0.546785 2.414889
3 0 7.112895 8.078922 8.215646 -0.250624 0.484394 -0.576011
4 0 7.317951 6.692424 7.618637 0.716859 -0.882785 0.315835
5 0 6.674585 6.684471 6.248635 -0.472188 0.682218 -0.230328
6 0 7.226606 8.983262 5.790407 0.223525 1.420374 -0.881147
7 1 6.308008 10.859428 7.680922 0.387949 -0.427037 -0.115670
8 1 7.873415 11.288356 7.048236 0.348005 0.300864 0.093371
9 1 7.681662 10.656653 8.748074 0.390203 0.137075 0.112186
10 1 8.738549 9.056486 7.209748 0.518530 -0.222998 -0.279984
11 1 6.045352 8.332972 8.352842 -0.058540 -0.313905 0.080706
12 1 7.580494 8.159087 9.211708 0.111829 0.186753 -0.214855
13 1 8.428251 6.464566 7.691730 -0.924880 -0.036293 -0.487494
14 1 6.771181 5.854340 8.144894 0.494964 0.717627 0.037539
15 1 5.614666 6.911850 6.511058 0.042817 -0.324579 -0.587207
16 1 6.738336 5.814417 5.590944 0.059959 -0.480987 0.488142
17 2 7.095631 7.727490 5.307132 -0.151932 0.196843 -0.046201
18 2 7.141151 9.986431 5.074743 -0.150249 -1.312893 -0.187318
Energy
-104.272548560000
PlusStress: xx yy zz yz xz xy
0.000781 0.000819 0.000513 -0.000454 -0.000263 -0.000159
Feature EFS_by vasp
Feature from database:p.cfg
Feature mindist 2.70
END_CFG

BEGIN_CFG
Size
18
Supercell
15.000000 0.000000 0.000000
0.000000 17.000000 0.000000
0.000000 0.000000 14.250000
AtomData: id type cartes_x cartes_y cartes_z fx fy fz
1 0 7.423839 10.640012 7.949185 0.322167 -0.357465 -0.454474
2 0 7.660577 9.258567 7.236535 0.619694 -0.571506 1.326181
3 0 7.108991 8.124185 8.099622 -0.965771 -0.333184 0.335385
4 0 7.188337 6.661427 7.600440 -1.654047 1.370138 -1.067442
5 0 6.576287 6.622716 6.168662 1.787397 0.697733 -0.020356
6 0 7.252142 9.048262 5.805639 0.930643 -1.578512 -0.341991
7 1 6.426741 11.049275 7.787058 -0.299565 0.064428 -0.450135
8 1 8.179129 11.391157 7.612787 -0.462977 -0.364248 0.285395
9 1 7.452695 10.507842 9.056369 0.448026 -0.037184 -0.486996
10 1 8.756055 9.041893 7.352090 -0.240893 0.422846 -0.867591
11 1 6.021210 8.261289 8.153741 -0.296491 0.363061 0.397352
12 1 7.517072 8.323460 9.099020 -0.072310 -0.573970 0.221961
13 1 8.117137 6.157351 7.673523 1.353947 -0.364835 -0.086708
14 1 6.458538 6.114019 8.170815 -0.274793 -0.616257 0.839773
15 1 5.471459 6.736360 6.164139 0.341573 -0.095167 0.000068
16 1 6.926193 5.728386 5.615635 -0.554530 0.045352 0.247325
17 2 7.173483 7.698409 5.335663 -0.694250 0.523317 0.838190
18 2 7.213388 9.878400 4.945820 -0.282837 1.419600 -0.726489
Energy
-103.939102480000
PlusStress: xx yy zz yz xz xy
0.000613 0.001346 0.000671 0.001225 0.000450 0.000243
Feature EFS_by vasp
Feature from database:p.cfg
Feature mindist 2.70
END_CFG

BEGIN_CFG
Size
18
Supercell
15.000000 0.000000 0.000000
0.000000 17.000000 0.000000
0.000000 0.000000 14.250000
AtomData: id type cartes_x cartes_y cartes_z fx fy fz
1 0 7.425998 10.607929 7.682418 -0.150106 -0.424369 0.591574
2 0 7.639162 9.117652 7.392708 0.006065 -0.002908 -0.003892
3 0 6.893472 8.086252 8.223678 -1.391328 0.680270 -0.252815
4 0 7.158890 6.800881 7.542880 1.953797 -2.298636 -0.046210
5 0 6.651873 6.701130 6.124426 -1.369745 0.168350 0.003805
6 0 7.337406 8.911547 5.849275 0.700436 1.607415 0.303521
7 1 6.359210 10.885765 7.744356 0.169314 -0.008029 -0.229692
8 1 7.934478 11.128818 6.888088 -0.069148 0.616148 -0.426759
9 1 7.906212 10.925877 8.612734 0.018195 -0.223184 0.350094
10 1 8.708206 8.920261 7.583564 0.171537 -0.066275 -0.482706
11 1 5.810075 8.337373 8.104757 0.189674 -0.159283 0.501977
12 1 7.141652 7.997553 9.294916 0.063337 0.479702 -0.139143
13 1 8.309401 6.697235 7.510146 -1.200924 -0.233370 0.085670
14 1 6.777045 5.890007 8.096164 0.235352 0.708820 -0.383063
15 1 5.537954 6.831409 6.157863 0.355887 -0.525502 -0.082772
16 1 6.919563 5.765848 5.629232 -0.017855 -0.186103 0.025695
17 2 7.067992 7.758779 5.216766 0.272087 -0.658642 1.108161
18 2 7.391631 9.911132 5.164731 0.063824 0.528957 -0.928174
Energy
-104.102676380000
PlusStress: xx yy zz yz xz xy
0.000968 -0.000798 0.000846 0.000223 0.000281 -0.000257
Feature EFS_by vasp
Feature from database:p.cfg
Feature mindist 2.70
END_CFG

BEGIN_CFG
Size
18
Supercell
15.000000 0.000000 0.000000
0.000000 17.000000 0.000000
0.000000 0.000000 14.250000
AtomData: id type cartes_x cartes_y cartes_z fx fy fz
1 0 7.357878 10.518474 7.914529 0.083417 0.491934 -0.160936
2 0 7.611016 9.141437 7.292592 0.602001 0.011646 1.079311
3 0 6.813698 8.100684 8.146327 1.132095 -0.924777 -0.613723
4 0 7.124032 6.658946 7.618265 -1.482746 1.912528 -0.390932
5 0 6.685654 6.728810 6.163647 -0.813821 -2.139867 -0.352722
6 0 7.395802 9.064309 5.790289 0.001581 -0.220773 -0.874798
7 1 6.246085 10.627866 7.898769 0.557024 0.474253 0.173130
8 1 7.855351 11.368173 7.386415 -0.444260 -0.510653 -0.005656
9 1 7.730599 10.573144 8.966350 -0.342127 -0.249530 -0.453448
10 1 8.686988 8.842873 7.389884 -0.261483 0.310217 0.025863
11 1 5.748268 8.307906 8.046344 -0.413725 -0.036307 -0.018276
12 1 7.065732 8.181314 9.211459 0.123626 0.262327 0.016257
13 1 8.111088 6.294962 7.786706 1.297130 0.110823 0.071398
14 1 6.466242 5.928260 8.077506 -0.344914 -0.304769 0.317992
15 1 5.580174 6.594004 6.184229 0.163052 0.309854 -0.162829
16 1 7.038108 5.826099 5.598842 0.062344 0.579273 0.122708
17 2 6.962055 7.858000 5.340058 0.120506 -0.360894 -0.075376
18 2 7.641388 9.873690 4.900872 -0.036128 0.296371 1.282562
Energy
-104.234130470000
PlusStress: xx yy zz yz xz xy
0.000504 0.000729 0.001341 -0.000432 -0.000270 -0.000265
Feature EFS_by vasp
Feature from database:p.cfg
Feature mindist 2.70
END_CFG

BEGIN_CFG
Size
18
Supercell
15.000000 0.000000 0.000000
0.000000 17.000000 0.000000
0.000000 0.000000 14.250000
AtomData: id type cartes_x cartes_y cartes_z fx fy fz
1 0 7.302694 10.655227 7.798291 1.321557 -1.250789 -0.338936
2 0 7.586400 9.145657 7.381830 -0.037198 1.401183 -0.222243
3 0 6.815837 8.059522 8.101100 0.403508 -0.311246 1.159812
4 0 7.103195 6.672318 7.502510 -0.410802 -0.396822 -0.272138
5 0 6.517654 6.687595 6.051147 0.567542 -0.261230 1.763541
6 0 7.413354 9.017992 5.885189 0.382368 -1.187793 0.597617
7 1 6.325770 11.040838 7.529180 -0.391249 -0.019537 0.002215
8 1 8.092886 11.270197 7.342369 -0.294645 0.043753 -0.352774
9 1 7.528812 10.736683 8.851891 -0.406769 0.060379 0.793012
10 1 8.701048 9.052056 7.500864 -0.615250 -0.323648 0.148092
11 1 5.721814 8.297160 8.120161 0.446368 -0.257667 -0.212331
12 1 7.118580 7.992930 9.165711 -0.073850 0.360402 -0.089915
13 1 8.194811 6.367052 7.527891 -0.745604 0.692156 -0.235993
14 1 6.633326 5.921076 8.184155 -0.140791 0.136509 -0.684527
15 1 5.421367 6.643768 6.082151 -0.250220 0.519049 0.071062
16 1 6.787802 5.805576 5.479772 0.509876 -0.231314 -0.394116
17 2 6.995715 7.841674 5.343816 -0.639366 -0.752642 -0.613850
18 2 7.794759 9.834340 5.099088 0.386875 1.788919 -1.127352
Energy
-104.266282420000
PlusStress: xx yy zz yz xz xy
0.001221 0.000754 0.000112 0.000228 0.000424 -0.000433
Feature EFS_by vasp
Feature from database:p.cfg
Feature mindist 2.70
END_CFG

BEGIN_CFG
Size
18
Supercell
15.000000 0.000000 0.000000
0.000000 17.000000 0.000000
0.000000 0.000000 14.250000
AtomData: id type cartes_x cartes_y cartes_z fx fy fz
1 0 7.191440 10.486705 7.740484 -1.334331 1.416359 0.340863
2 0 7.589367 9.101544 7.390923 0.531072 -0.086526 -1.148569
3 0 6.863770 8.098546 8.184200 -0.693581 -1.567295 0.523776
4 0 6.949411 6.732598 7.493400 0.169992 0.178461 -0.071828
5 0 6.424393 6.825446 6.069944 -0.840855 -0.667779 0.459231
6 0 7.515612 8.938988 5.864374 0.648591 1.893600 -0.410535
7 1 6.094015 10.604087 7.476729 0.831746 0.161544 0.352770
8 1 7.756501 11.201629 7.127340 -0.073376 0.131361 0.277138
9 1 7.306386 10.695710 8.836142 0.014396 -0.095266 -0.654609
10 1 8.669036 9.050591 7.497545 0.697875 -0.380175 0.482491
11 1 5.805572 8.392555 8.204219 -0.307602 -0.003599 0.028424
12 1 7.165924 8.101408 9.243176 0.209220 -0.163481 -0.043556
13 1 7.973420 6.376161 7.363248 0.584051 0.098974 0.369735
14 1 6.439070 5.906397 8.013278 -0.238831 0.194531 0.041976
15 1 5.339600 7.092361 6.078666 0.361062 -0.202908 -0.173498
16 1 6.556077 5.793037 5.659524 -0.078157 0.857355 -0.520711
17 2 7.096712 7.818395 5.241167 -0.099151 -0.635010 0.329800