BEGIN_CFG
Size
21
Supercell
16.750000 0.000000 0.000000
0.000000 16.250000 0.000000
0.000000 0.000000 15.500000
AtomData: id type cartes_x cartes_y cartes_z fx fy fz
1 0 7.551938 10.206805 9.592529 0.209954 0.319044 -1.004419
2 0 6.938338 9.023805 8.776529 2.320629 1.574762 0.236472
3 0 8.113238 8.194805 8.174529 -0.461115 -0.173787 0.067580
4 0 7.531138 6.993005 7.386529 1.757553 0.944189 -2.272846
5 0 8.604138 6.547605 6.278829 -0.563862 0.228659 0.327015
6 0 10.071238 6.851205 6.656629 -2.379718 0.675914 0.851476
7 0 10.136238 8.425805 6.804029 4.009411 -1.315338 -1.216065
8 1 8.358838 9.930805 10.261529 0.441869 -0.484022 0.210470
9 1 6.842138 10.708805 10.221529 -0.856272 0.386278 0.356496
10 1 7.982438 10.981805 8.897529 -0.336510 -0.620753 0.435697
11 1 6.339738 9.523805 8.001529 -0.110871 -0.521929 -0.281002
12 1 6.297138 8.397805 9.398529 -0.025834 -0.324948 0.030936
13 1 8.828638 7.834505 8.928529 -0.590466 -0.167953 0.480307
14 1 6.578438 7.276305 6.888029 0.351416 -0.059016 0.112330
15 1 7.313738 6.183905 8.056529 -0.022171 -0.592142 0.712048
16 1 8.555138 7.214505 5.436029 -0.978021 0.616984 -0.786264
17 1 8.391538 5.575605 5.803129 0.177745 -0.247112 0.588835
18 1 10.742238 6.467605 5.908728 0.483334 0.422165 -0.716609
19 1 10.348238 6.305905 7.540229 0.286489 -0.057529 1.163958
20 2 11.241238 8.857805 6.300729 -4.089434 0.612061 1.915639
21 2 9.109238 9.122805 7.437829 0.381195 -1.192768 -1.218039
Energy
-119.914181090000
PlusStress: xx yy zz yz xz xy
0.003236 0.001432 0.000442 0.000545 -0.001358 0.000111
Feature EFS_by vasp
Feature from database:p.cfg
Feature mindist 2.70
END_CFG

BEGIN_CFG
Size
21
Supercell
16.750000 0.000000 0.000000
0.000000 16.250000 0.000000
0.000000 0.000000 15.500000
AtomData: id type cartes_x cartes_y cartes_z fx fy fz
1 0 7.391764 10.362308 9.455768 -0.123254 0.212814 1.815133
2 0 7.168074 9.073186 8.641638 -1.830409 0.904038 0.702703
3 0 8.186010 8.089311 8.233970 0.944343 -0.501280 -1.155189
4 0 7.605236 6.971782 7.338177 -0.993710 -0.436567 -0.457074
5 0 8.570224 6.507738 6.264706 1.707050 1.287937 -0.959567
6 0 10.014444 6.838743 6.707302 1.683198 -1.594638 0.762439
7 0 10.223300 8.366936 6.846745 -2.543722 -2.706077 0.751710
8 1 7.999966 10.374793 10.423259 -0.694667 -0.731301 -0.785523
9 1 6.330117 10.700469 9.749162 1.482543 0.010055 -0.454302
10 1 7.926345 11.114198 8.874853 -0.243865 0.286221 -0.381965
11 1 6.895114 9.533277 7.680711 -0.656838 -0.381271 -0.237758
12 1 6.259840 8.566538 9.077397 0.670494 0.081908 -0.483185
13 1 8.821887 7.686508 8.996185 0.159708 -0.501759 1.150469
14 1 6.831311 7.424160 6.718584 -0.872881 0.218229 0.377871
15 1 7.135309 6.077065 7.862374 0.599385 1.073959 -0.075831
16 1 8.551429 7.145303 5.320960 -0.833973 -0.615993 0.702454
17 1 8.413500 5.476649 5.928036 0.194884 -0.130873 0.247879
18 1 10.769172 6.343338 6.006810 -0.609829 0.809647 0.817249
19 1 10.197064 6.388187 7.768741 -0.027959 0.530477 -1.434447
20 2 11.096370 9.078814 6.485866 2.109655 1.184621 -0.975637
21 2 9.122321 8.899769 7.447209 -0.106048 1.008534 0.065532
Energy
-120.182793330000
PlusStress: xx yy zz yz xz xy
-0.000095 0.001062 0.001127 0.000116 0.000027 0.000663
Feature EFS_by vasp
Feature from database:p.cfg
Feature mindist 2.70
END_CFG

BEGIN_CFG
Size
21
Supercell
16.750000 0.000000 0.000000
0.000000 16.250000 0.000000
0.000000 0.000000 15.500000
AtomData: id type cartes_x cartes_y cartes_z fx fy fz
1 0 7.437549 10.235470 9.408454 2.470292 -1.970783 -1.949269
2 0 6.821265 9.164727 8.457372 2.223186 0.987572 0.232652
3 0 8.057442 8.234357 8.081812 0.186167 -0.913838 1.912918
4 0 7.715070 6.936863 7.345083 -1.768361 0.636017 -2.680675
5 0 8.670968 6.363283 6.329574 2.876373 -0.308863 1.426558
6 0 10.105725 6.879093 6.731247 -2.368926 0.618267 -1.371172
7 0 10.182596 8.335846 6.885653 0.759691 2.925753 0.828330
8 1 7.700306 9.995224 10.392976 -0.612151 -1.099028 2.128683
9 1 7.071971 11.200853 9.405278 -1.134541 2.160893 -0.340661
10 1 8.510560 10.231464 9.053126 -0.805055 1.075414 -0.087008
11 1 6.408714 9.729991 7.593633 0.222850 -0.589378 -0.024796
12 1 6.037729 8.606746 8.931091 -0.608422 -0.696586 0.200299
13 1 8.511283 7.783876 9.065937 -0.851690 1.124133 -0.908427
14 1 6.805446 7.014685 6.696471 -0.145388 0.485706 0.789775
15 1 7.471152 6.215799 8.071548 -0.341293 -1.095047 1.210574
16 1 8.491274 6.629152 5.313970 -0.467041 0.352338 -0.977428
17 1 8.835855 5.264307 6.388507 -0.766652 0.279165 -0.102150
18 1 10.809488 6.624160 6.000694 1.436457 -0.613929 -1.114308
19 1 10.295478 6.394825 7.630153 0.825043 -0.861878 2.076063
20 2 11.124323 9.056194 6.552345 -0.424841 -0.989529 -0.241405
21 2 9.169674 9.038918 7.559217 -0.706901 -1.498529 -1.015627
Energy
-119.705033940000
PlusStress: xx yy zz yz xz xy
0.000712 0.000204 -0.000660 0.000599 0.000517 -0.000211
Feature EFS_by vasp
Feature from database:p.cfg
Feature mindist 2.70
END_CFG

BEGIN_CFG
Size
21
Supercell
16.750000 0.000000 0.000000
0.000000 16.250000 0.000000
0.000000 0.000000 15.500000
AtomData: id type cartes_x cartes_y cartes_z fx fy fz
1 0 7.216598 10.225217 9.490009 -0.576031 0.742827 1.288124
2 0 7.010180 9.209218 8.365153 -1.356701 0.556552 0.921079
3 0 8.107613 8.200170 8.134237 -0.837565 0.639721 -2.662888
4 0 7.588987 7.076285 7.288430 1.085958 -3.966145 0.339526
5 0 8.779811 6.409826 6.416704 0.489027 1.444959 -0.198873
6 0 10.208090 6.807529 6.963592 0.228728 -0.869972 0.591729
7 0 10.272561 8.297549 6.959709 0.440535 2.925374 -0.837967
8 1 7.456969 9.818516 10.540568 -0.725984 0.255987 -1.256868
9 1 6.334864 10.978857 9.519446 1.059603 -1.248682 0.253556
10 1 8.076580 10.859964 9.266442 0.348271 0.105181 -0.213482
11 1 6.912100 9.855939 7.483960 0.133270 -0.356946 -0.481891
12 1 5.992800 8.703137 8.434757 1.006149 0.236374 0.236618
13 1 8.609925 7.845826 9.007628 0.486632 -0.168211 0.975155
14 1 6.703761 7.254293 6.674008 0.048930 0.481740 -0.126272
15 1 7.301532 6.223062 7.993200 -0.106324 0.803126 -0.561076
16 1 8.816486 6.838336 5.376495 -0.532480 -0.478943 0.554906
17 1 8.752649 5.317516 6.358777 -0.375267 -0.062880 -0.015539
18 1 11.045141 6.463584 6.278805 -0.762658 -0.061633 0.900372
19 1 10.313162 6.390585 8.037888 0.240184 0.490834 -1.385184
20 2 11.141779 9.114792 6.564756 -1.161722 -2.479040 0.741191
21 2 9.046747 8.869491 7.235777 0.874713 1.030123 0.940186
Energy
-120.272767820000
PlusStress: xx yy zz yz xz xy
0.001843 0.000953 0.001610 -0.000543 -0.000358 -0.000196
Feature EFS_by vasp
Feature from database:p.cfg
Feature mindist 2.70
END_CFG

BEGIN_CFG
Size
21
Supercell
16.750000 0.000000 0.000000
0.000000 16.250000 0.000000
0.000000 0.000000 15.500000
AtomData: id type cartes_x cartes_y cartes_z fx fy fz
1 0 7.094935 10.106780 9.427805 1.239263 0.795796 -0.742869
2 0 6.886981 9.074354 8.360590 -0.504830 2.226641 -1.063476
3 0 8.082641 8.294937 7.924542 0.563754 0.510914 1.141747
4 0 7.643381 7.053470 7.180708 -0.155927 0.590561 -1.285977
5 0 8.811216 6.375269 6.548073 1.740363 -1.315380 0.384432
6 0 10.127988 6.918191 7.151094 -0.916355 1.098310 -0.361797
7 0 10.294627 8.437712 6.973042 -3.615673 -2.673307 0.910335
8 1 7.647194 9.683915 10.225487 0.764244 -0.334163 1.352713
9 1 6.196563 10.508459 9.790573 -1.783422 0.299513 0.765760
10 1 7.614890 11.030907 9.084384 0.235534 -0.634493 -0.130878
11 1 6.391859 9.676546 7.565091 0.522793 -0.523653 -0.596998
12 1 6.082690 8.413316 8.599446 -0.537657 -1.031245 0.651569
13 1 8.649742 7.995006 8.847585 -0.660478 -0.088635 -0.291172
14 1 6.834583 7.218628 6.440747 0.193924 0.418794 0.133333
15 1 7.224403 6.335191 7.859877 -0.484893 -0.140097 0.989913
16 1 8.879734 6.388959 5.469138 -0.252962 0.153204 -0.580027
17 1 8.769923 5.321433 6.881715 0.135871 -0.087123 -0.579395
18 1 11.051630 6.530011 6.758176 0.332239 -0.671726 -0.215496
19 1 10.035730 6.733253 8.200861 0.409599 -0.391388 1.113665
20 2 11.307388 8.818686 6.513768 2.377415 2.783349 -1.055218
21 2 9.121422 9.184009 7.278843 0.412150 -0.971326 -0.550491
Energy
-120.247789490000
PlusStress: xx yy zz yz xz xy
-0.000227 -0.000023 -0.001052 -0.000040 0.000642 0.000170
Feature EFS_by vasp
Feature from database:p.cfg
Feature mindist 2.70
END_CFG

BEGIN_CFG
Size
21
Supercell
16.750000 0.000000 0.000000
0.000000 16.250000 0.000000
0.000000 0.000000 15.500000
AtomData: id type cartes_x cartes_y cartes_z fx fy fz
1 0 7.102963 10.294721 9.405215 0.029236 -0.718829 0.668842
2 0 6.900853 9.224490 8.265962 -1.934801 1.028733 -0.089179
3 0 7.955622 8.193336 7.948486 1.041861 -0.327691 0.516658
4 0 7.697204 7.108952 6.891928 -0.160795 -1.738958 0.211716
5 0 9.009345 6.213606 6.663186 -0.324426 0.164373 0.029327
6 0 10.277769 6.878440 7.221192 0.276272 -0.467107 1.268865
7 0 10.229475 8.359984 7.090549 1.959577 0.909351 -2.314731
8 1 7.384016 9.734179 10.350054 -0.051548 0.678542 -0.635102
9 1 6.156191 10.869235 9.662592 0.703807 -0.767533 -0.526941
10 1 7.869638 11.073234 9.181727 -0.165004 -0.620000 0.011048
11 1 6.678539 9.789599 7.351677 0.252685 0.078214 -0.373402
12 1 5.899462 8.744488 8.429212 0.683309 -0.185544 0.225020
13 1 8.338009 7.760547 8.912001 -0.368391 -0.144545 -0.407653
14 1 7.394541 7.534940 5.928832 0.042855 0.411383 0.013550
15 1 6.848767 6.416926 7.176688 0.619104 0.601732 -0.008956
16 1 9.202291 5.927180 5.600761 -0.492967 0.450127 0.374626
17 1 8.971377 5.263769 7.208415 -0.552947 -0.176449 -0.036465
18 1 11.189962 6.508260 6.724096 -0.154179 0.116059 0.166596
19 1 10.351877 6.595895 8.321000 0.059448 0.347306 -0.854679
20 2 11.124932 9.017921 6.501584 -1.497955 -0.879431 1.452326
21 2 9.073514 8.951241 7.405334 0.041203 1.253461 0.309184
Energy
-120.727938320000
PlusStress: xx yy zz yz xz xy
0.001349 0.001410 0.001670 0.000472 -0.000482 -0.000423
Feature EFS_by vasp
Feature from database:p.cfg
Feature mindist 2.70
END_CFG

BEGIN_CFG
Size
21
Supercell
16.750000 0.000000 0.000000
0.000000 16.250000 0.000000
0.000000 0.000000 15.500000
AtomData: id type cartes_x cartes_y cartes_z fx fy fz
1 0 7.178474 10.101844 9.115407 -0.083749 1.199762 -0.206711
2 0 6.832737 9.148997 7.987087 -0.329638 -0.214595 1.674308
3 0 8.009476 8.167332 7.965900 -1.364631 1.102093 -2.047840
4 0 7.783532 7.193537 6.857196 0.080587 -0.369276 -0.414751
5 0 8.865531 6.181342 6.854506 2.441633 -0.518243 1.048592
6 0 10.280411 6.907631 7.209970 0.172383 -0.879390 -0.676534
7 0 10.241775 8.404772 7.084511 -0.385487 -0.146038 -0.254708
8 1 6.844167 9.774053 10.090449 -0.099809 -0.505120 0.478297
9 1 6.754121 11.100582 9.011162 -0.121104 0.337183 -0.207700
10 1 8.262057 10.204316 9.117130 0.231369 0.422439 0.314078
11 1 6.498586 9.625384 7.047938 0.736455 -0.163138 -0.028521
12 1 5.967975 8.582304 8.347888 -0.327809 -0.325748 -0.239005
13 1 8.143818 7.762118 8.945200 -0.171717 -0.897582 1.002367
14 1 7.729786 7.710196 5.874047 0.012945 0.104235 0.410853
15 1 6.821896 6.754062 7.043370 -0.860911 -0.562143 -0.097678
16 1 8.959297 5.556545 5.966153 0.042767 0.214708 -0.491702
17 1 8.780476 5.446709 7.672995 -0.442598 0.057102 0.019933
18 1 11.144135 6.462417 6.656974 -0.549634 0.386403 0.134325
19 1 10.522686 6.767031 8.280949 -0.211541 -0.242869 -0.050191
20 2 11.012052 9.186409 6.574876 1.040163 -0.146130 -0.392330
21 2 9.163332 8.938457 7.690832 0.183899 1.160894 0.006164
Energy
-120.491882150000
PlusStress: xx yy zz yz xz xy
-0.000282 -0.000794 0.000057 -0.000284 0.000928 -0.000020
Feature EFS_by vasp
Feature from database:p.cfg
Feature mindist 2.70
END_CFG

BEGIN_CFG
Size
21
Supercell
16.750000 0.000000 0.000000
0.000000 16.250000 0.000000
0.000000 0.000000 15.500000
AtomData: id type cartes_x cartes_y cartes_z fx fy fz
1 0 6.784413 10.332122 9.132615 1.856819 -1.197460 0.236653
2 0 6.770413 9.281759 7.962096 -0.592229 -0.887789 1.207198
3 0 7.910588 8.219484 7.935674 1.289041 0.465308 0.676855
4 0 7.885990 7.131250 6.856878 -0.775479 -1.516259 0.823724
5 0 9.064957 6.117217 6.946465 -0.290279 -0.880597 -0.557868
6 0 10.395276 6.800722 7.043112 -0.154241 1.941700 0.707149
7 0 10.238819 8.341822 7.081518 0.182101 -0.502996 0.502310
8 1 6.777586 9.797071 10.115291 -0.035289 0.015434 -0.435693
9 1 5.860251 10.905360 9.130509 0.074494 0.609229 -0.249051
10 1 7.772306 10.902942 9.167470 -1.364755 -0.088170 -0.318492
11 1 6.595332 9.777484 6.994945 0.304793 -0.161996 -0.058338
12 1 5.865632 8.655407 8.188729 0.238665 0.290768 -0.453759
13 1 8.114977 7.810327 8.988359 -0.893392 0.066716 -1.037104
14 1 7.973999 7.571101 5.850759 -0.317067 0.263096 0.101744
15 1 6.950504 6.494011 6.905459 0.494454 0.827619 -0.099179
16 1 9.005744 5.522198 6.001535 0.106446 0.242194 0.376566
17 1 9.075357 5.349961 7.734564 -0.920205 0.152492 0.258740
18 1 11.092687 6.560649 6.273122 0.489847 -0.034893 -1.107138
19 1 11.002359 6.598173 7.940823 -0.423611 -0.184293 0.352935
20 2 11.114356 9.070236 6.696094 1.313996 0.797487 -0.702275
21 2 9.188628 8.952921 7.704526 -0.592595 -0.206083 -0.217539
Energy
-120.540149460000
PlusStress: xx yy zz yz xz xy
0.000693 0.001454 0.001113 0.000509 0.000429 -0.001146
Feature EFS_by vasp
Feature from database:p.cfg
Feature mindist 2.70
END_CFG

BEGIN_CFG
Size
21
Supercell
16.750000 0.000000 0.000000
0.000000 16.250000 0.000000
0.000000 0.000000 15.500000
AtomData: id type cartes_x cartes_y cartes_z fx fy fz
1 0 6.670707 10.169121 8.946680 -2.044094 -2.162664 0.850739
2 0 6.885176 9.136027 7.844995 -1.395324 2.077431 -0.220709
3 0 8.026380 8.260500 7.905261 0.651453 -0.542957 -0.312475
4 0 7.740369 7.084650 6.990262 2.379340 -0.735484 -0.227178
5 0 8.951612 6.110525 7.074571 0.361379 0.780360 0.668240
6 0 10.253180 6.913644 6.962677 1.552186 0.175396 -1.725658
7 0 10.260494 8.438448 7.082786 3.511838 1.121487 0.686672
8 1 6.988033 9.779225 9.930194 0.012586 0.007696 -0.040770
9 1 5.543258 10.192330 8.982383 0.814663 0.826100 0.357443
10 1 7.100678 11.117350 8.821909 0.637452 1.507694 -0.468324
11 1 6.946500 9.713366 6.898908 -0.203738 -0.404149 -0.077130
12 1 6.005482 8.486433 7.800569 -0.288551 0.099406 -0.076451
13 1 8.271581 7.956244 8.907281 -0.392589 -0.799390 1.004789
14 1 7.568456 7.417680 5.941496 -0.027131 -0.079298 0.415945
15 1 6.886998 6.569071 7.380173 -0.952874 -0.284862 0.113620
16 1 8.943314 5.338957 6.313331 -0.184844 -0.370424 -0.264626
17 1 9.021656 5.619864 8.069236 -0.602106 -0.005001 -0.288621
18 1 10.795998 6.704707 5.972681 -0.731026 0.325696 0.901379
19 1 11.068866 6.638372 7.672311 -0.586895 -0.140215 0.010618
20 2 11.368559 9.060266 6.931684 -3.417217 -1.361212 0.061524
21 2 9.190628 9.072256 7.619952 0.915889 -0.023293 -1.363916
Energy
-120.357691980000
PlusStress: xx yy zz yz xz xy
0.000678 0.000025 0.000487 -0.000010 0.000540 0.000718
Feature EFS_by vasp
Feature from database:p.cfg
Feature mindist 2.70
END_CFG

BEGIN_CFG
Size
21
Supercell
16.750000 0.000000 0.000000
0.000000 16.250000 0.000000
0.000000 0.000000 15.500000
AtomData: id type cartes_x cartes_y cartes_z fx fy fz
1 0 6.600007 10.285357 8.934491 2.871478 -1.131923 -0.619760
2 0 6.682805 9.215754 7.791315 -0.178638 -0.340363 0.186550
3 0 7.900777 8.211491 7.817724 0.491759 1.648870 0.212646
4 0 7.839602 6.975675 6.979628 -1.403485 -1.032263 0.727340
5 0 9.100181 6.213111 7.279109 1.813880 -0.571318 -0.973201
6 0 10.371810 6.964620 6.728444 -0.286094 -0.519141 2.363103
7 0 10.385554 8.392925 7.202499 -3.929499 -2.515199 -0.943645
8 1 6.434641 9.729777 9.867055 -0.015456 0.566753 0.297903
9 1 5.936316 11.118722 8.771681 -0.823097 0.056204 -0.156184
10 1 7.649363 10.767274 8.904533 -1.203534 -0.565985 0.561091
11 1 6.614252 9.811374 6.872111 0.255873 -0.514537 -0.484128
12 1 5.825454 8.504938 7.818659 -0.067783 0.503531 -0.026197
13 1 8.141689 7.953496 8.873628 -0.626850 -0.189593 -0.079598
14 1 7.726781 7.168686 5.903215 -0.158906 0.159484 0.027382
15 1 6.961873 6.366687 7.357586 0.494310 0.383952 -0.573336
16 1 9.134767 5.198668 6.816097 -0.315517 0.289587 0.483969
17 1 9.214694 6.157975 8.381079 0.002474 -0.404309 -0.270870
18 1 10.486473 6.975495 5.669713 -0.247516 -0.051106 -1.282480
19 1 11.325006 6.546241 7.115738 -0.376263 -0.226038 -0.079028
20 2 11.351595 9.049715 7.206948 3.114441 2.827204 0.430022
21 2 9.118509 8.925335 7.421469 0.611129 1.629181 0.194742
Energy
-120.518615370000
PlusStress: xx yy zz yz xz xy
0.000913 0.000197 0.000480 0.000058 -0.000502 -0.000680
Feature EFS_by vasp
Feature from database:p.cfg
Feature mindist 2.70
END_CFG

BEGIN_CFG
Size
21
Supercell
16.750000 0.000000 0.000000
0.000000 16.250000 0.000000
0.000000 0.000000 15.500000
AtomData: id type cartes_x cartes_y cartes_z fx fy fz
1 0 6.822775 10.214026 8.675284 -2.226686 0.285678 -1.592157
2 0 6.725851 9.153336 7.545696 0.425309 -0.134220 0.929091
3 0 7.880286 8.189947 7.869698 1.264775 1.522133 0.122360
4 0 7.903616 6.872224 7.176437 -1.305533 -0.310151 -1.529418
5 0 9.202960 6.114219 7.203832 -0.319219 0.428817 1.409424
6 0 10.224533 7.057839 6.744620 1.157693 0.461950 -2.220854
7 0 10.259159 8.388836 7.326441 1.931564 4.220034 0.059539
8 1 6.317232 9.803983 9.555830 0.149274 0.496171 0.302021
9 1 6.407446 11.184859 8.307380 -0.442805 -0.514991 0.557462
10 1 7.836632 10.465463 8.795809 1.623444 0.042860 0.690790
11 1 6.820595 9.675072 6.573294 0.297983 -0.584346 0.050173
12 1 5.798079 8.563684 7.532425 -0.273995 0.278229 0.148094
13 1 8.025835 8.130316 8.995656 -0.448337 -0.312507 -0.845721
14 1 7.637270 7.092241 6.112295 0.081297 -0.181180 0.245726
15 1 7.043012 6.348221 7.570139 -0.427779 -0.710878 0.231978
16 1 9.378323 5.243443 6.592645 -0.922398 -0.827811 -0.264186
17 1 9.446549 5.866310 8.247764 -0.029984 -0.366644 0.128227
18 1 10.027694 7.362935 5.638587 0.345989 -0.706354 1.135831
19 1 11.195631 6.589632 6.794684 0.765460 0.060440 -0.117156
20 2 11.272355 9.137541 7.403647 -1.585897 -2.033671 0.043638
21 2 9.063634 9.037396 7.470462 -0.054631 -1.083164 0.515386
Energy
-120.288936650000
PlusStress: xx yy zz yz xz xy
-0.000841 0.000320 0.000976 -0.000625 0.000501 -0.000207
Feature EFS_by vasp
Feature from database:p.cfg
Feature mindist 2.70
END_CFG

BEGIN_CFG
Size
21
Supercell
16.750000 0.000000 0.000000
0.000000 16.250000 0.000000
0.000000 0.000000 15.500000
AtomData: id type cartes_x cartes_y cartes_z fx fy fz
1 0 6.575203 10.458728 8.319724 0.002440 -0.103955 0.231483
2 0 6.743305 9.100480 7.676775 -0.617446 -1.062466 -0.997871
3 0 7.886618 8.166097 7.934006 0.833116 -0.458260 -0.990880
4 0 7.842618 6.860697 7.081125 0.261388 -0.230688 0.624034
5 0 9.212293 6.145002 7.158501 0.530924 -1.034164 -0.164119
6 0 10.424829 7.014092 6.633112 -1.106897 0.859793 2.277832
7 0 10.331467 8.415691 7.330560 -0.053968 0.240014 -0.161303
8 1 6.623379 10.356930 9.417507 0.236559 0.325393 -0.053900
9 1 5.528769 10.714409 8.087976 0.165963 0.538152 0.024297
10 1 7.284143 11.238784 7.928793 -0.515482 -0.621506 0.420217
11 1 6.702056 9.209239 6.582728 0.003907 0.177822 -0.205295
12 1 5.885043 8.425555 7.880616 -0.252853 0.445263 0.173756
13 1 8.003470 7.905927 8.967559 -0.567045 -0.562746 1.140952
14 1 7.554428 6.977091 6.027621 0.108480 0.637465 -0.137361
15 1 7.042344 6.171504 7.463708 0.523051 0.430856 0.122914
16 1 9.133751 5.169666 6.592119 0.204146 0.736783 0.316460
17 1 9.398388 5.836007 8.219335 0.018675 0.248925 -0.463432
18 1 10.315609 7.208073 5.582478 0.060729 0.038682 -0.922893
19 1 11.467916 6.684845 6.873168 -0.829389 -0.245095 -0.239499
20 2 11.283448 9.161912 7.492101 0.158834 -0.428294 -0.216374
21 2 9.116865 8.911897 7.756750 0.849013 0.101236 -0.764083
Energy
-120.748980460000
PlusStress: xx yy zz yz xz xy
0.001279 0.001507 0.000479 0.000552 -0.000136 0.000244
Feature EFS_by vasp
Feature from database:p.cfg
Feature mindist 2.70
END_CFG

BEGIN_CFG
Size
21
Supercell
16.750000 0.000000 0.000000
0.000000 16.250000 0.000000
0.000000 0.000000 15.500000
AtomData: id type cartes_x cartes_y cartes_z fx fy fz
1 0 6.561794 10.369082 8.080745 -0.294874 -0.629911 -0.117782
2 0 6.601129 8.922656 7.596182 1.375300 -0.655993 0.952861
3 0 7.944295 8.145069 7.915156 -0.459526 0.396430 0.699397
4 0 7.953865 6.997493 6.943396 -0.277864 -0.491196 -0.548216
5 0 9.188306 6.175746 7.136455 -1.281140 -0.545201 1.174836
6 0 10.325466 7.009759 6.824658 1.140657 2.962054 -1.229835
7 0 10.345048 8.476796 7.418751 -2.357559 -0.622010 0.289181
8 1 6.933202 10.468276 9.112634 -0.040285 -0.098011 -0.048593
9 1 5.491466 10.623535 8.073576 0.194261 0.721848 -0.120766
10 1 7.204335 10.994155 7.440564 -0.396161 0.158309 0.056300
11 1 6.294737 8.768867 6.534916 0.474103 0.462651 0.280680
12 1 5.913474 8.270150 8.140220 -0.616149 0.202896 0.308082
13 1 8.032257 7.716431 8.973649 -1.114827 0.268179 -0.947330
14 1 7.749742 7.257352 5.881485 0.523020 0.403464 0.219608
15 1 7.063772 6.415744 7.177408 -0.379746 -0.322380 0.332560
16 1 9.173220 5.224205 6.639949 0.082380 -0.681892 -0.699438
17 1 9.192117 5.933375 8.199025 0.149009 -0.306918 0.545192
18 1 10.381411 7.176409 5.702353 0.400614 -0.184699 0.918002
19 1 11.262216 6.710364 7.243615 1.034653 -0.868963 -0.193455
20 2 11.342042 9.138443 7.428391 0.755040 0.650206 0.058640
21 2 9.146118 9.004747 8.015969 1.082407 -0.801057 -1.940106
Energy
-120.312679680000
PlusStress: xx yy zz yz xz xy
-0.000137 0.000049 0.001290 0.000362 0.000908 -0.000166
Feature EFS_by vasp
Feature from database:p.cfg
Feature mindist 2.70
END_CFG

BEGIN_CFG
Size
21
Supercell
16.750000 0.000000 0.000000
0.000000 16.250000 0.000000
0.000000 0.000000 15.500000
AtomData: id type cartes_x cartes_y cartes_z fx fy fz
1 0 6.740774 10.484602 8.141837 -0.560809 -1.547147 0.121887
2 0 6.602021 9.048574 7.562618 0.227128 -1.609455 0.609284
3 0 7.810182 8.065776 7.859699 1.049278 1.052450 -0.872777
4 0 8.017153 6.818385 6.988983 -1.274232 -0.302061 -0.348127
5 0 9.365738 6.055194 7.145888 -1.093821 -0.460278 0.594314
6 0 10.511000 7.039775 7.036791 0.547735 -0.378019 1.342771
7 0 10.227414 8.428050 7.476324 1.128057 3.946524 0.181156
8 1 6.777347 10.466287 9.239440 -0.302614 -0.042970 0.108726
9 1 5.898435 11.107532 7.798255 0.341427 0.041169 0.037102
10 1 7.712815 10.816797 7.851034 0.643215 0.891182 -0.535435
11 1 6.519730 9.038911 6.471426 -0.081813 0.336082 -0.263439
12 1 5.707850 8.505440 7.934655 -0.017634 0.351237 -0.033548
13 1 7.932694 7.799219 8.905584 -0.507046 -0.137131 0.676971
14 1 7.926244 7.115522 5.932435 -0.002800 0.199232 -0.100520
15 1 7.112521 6.190885 7.164612 0.500805 -0.223664 -0.017820
16 1 9.436183 5.227702 6.379244 -0.083961 0.682216 0.636221
17 1 9.396064 5.569648 8.165129 -0.033832 0.240929 -0.741851
18 1 10.892428 7.198034 6.035391 0.290082 -0.282773 -0.577271
19 1 11.355113 6.743695 7.714927 -0.239911 -0.020600 -0.774344
20 2 11.131533 9.298762 7.573627 -1.116296 -2.001418 -0.141327
21 2 8.967133 8.947920 7.618383 0.591908 -0.716798 0.080955
Energy
-120.683682760000
PlusStress: xx yy zz yz xz xy
0.000899 0.001683 0.000651 0.000275 0.000151 -0.000805
Feature EFS_by vasp
Feature from database:p.cfg
Feature mindist 2.70
END_CFG

BEGIN_CFG
Size
21
Supercell
16.750000 0.000000 0.000000
0.000000 16.250000 0.000000
0.000000 0.000000 15.500000
AtomData: id type cartes_x cartes_y cartes_z fx fy fz
1 0 6.682943 10.181666 8.312818 0.573629 0.818541 -0.270990
2 0 6.644562 8.992335 7.370197 0.594485 0.063883 -0.310283
3 0 7.846396 8.152639 7.663003 1.300648 -1.177197 -0.466630
4 0 7.942458 6.782935 6.913696 0.571674 1.526367 0.398919
5 0 9.229258 6.131667 7.463591 0.203729 0.972518 -0.445857
6 0 10.485548 7.059596 7.206147 -0.305618 0.290153 -0.019985
7 0 10.343637 8.560677 7.530468 -3.621854 -2.785385 -1.267682
8 1 6.668632 9.870323 9.382985 -0.061888 0.179525 -0.437697
9 1 5.839714 10.853716 8.098191 0.070148 0.166699 0.250964
10 1 7.671385 10.730220 8.095183 -1.330147 -0.509146 0.483388
11 1 6.780569 9.334818 6.319906 -0.373781 -0.070102 0.228172
12 1 5.768669 8.331184 7.421473 -0.284226 0.261675 0.142814
13 1 8.023030 8.069396 8.746725 -0.597600 -0.570227 0.242263
14 1 8.071699 7.082015 5.853769 -0.090049 -0.318602 0.051554
15 1 6.984121 6.249790 7.004257 0.298838 -0.384064 0.195808
16 1 9.464905 5.178229 7.005267 -0.058358 -0.539765 -0.142490
17 1 9.061734 5.985937 8.536271 0.276694 -0.180438 0.209161
18 1 10.685604 7.135172 6.103131 -0.091584 -0.345494 0.483791
19 1 11.399048 6.681632 7.674530 0.069664 -0.194333 0.071143
20 2 11.179802 9.372512 7.690445 2.043861 1.736431 0.560535
21 2 9.009063 8.950681 7.274963 0.810012 1.077003 0.047025
Energy
-120.696011200000
PlusStress: xx yy zz yz xz xy
0.001087 0.000104 0.000952 -0.000027 0.000058 0.000501
Feature EFS_by vasp
Feature from database:p.cfg
Feature mindist 2.70
END_CFG

BEGIN_CFG
Size
21
Supercell
16.750000 0.000000 0.000000
0.000000 16.250000 0.000000
0.000000 0.000000 15.500000
AtomData: id type cartes_x cartes_y cartes_z fx fy fz
1 0 6.157399 10.058608 8.343757 -1.053500 -1.354860 -1.087978
2 0 6.601340 9.059986 7.249984 0.625128 -0.340482 0.159854
3 0 7.872482 8.232506 7.583133 1.462997 1.524256 1.120934
4 0 8.054056 6.880157 6.953645 -0.344255 0.566609 0.809273
5 0 9.274781 6.179291 7.592849 -1.333262 -0.855130 -0.902790
6 0 10.530782 6.981024 7.357828 0.146769 0.666616 -0.075953
7 0 10.373507 8.530048 7.430130 1.834088 0.595048 1.125729
8 1 6.210539 9.568656 9.308067 0.015915 0.060710 0.589657
9 1 5.114431 10.376205 8.153577 0.100974 -0.206396 0.116772
10 1 6.724274 10.943316 8.293170 1.152108 1.252033 0.261433
11 1 6.802263 9.598944 6.312555 -0.085457 -0.069781 -0.129250
12 1 5.795965 8.327871 7.049939 0.086631 0.108086 0.014946
13 1 8.060266 8.194107 8.715863 -0.686662 -0.203560 -1.092037
14 1 8.108375 7.039300 5.866775 0.113817 -0.356303 -0.099167
15 1 7.127672 6.351456 7.211310 -0.062132 -0.442967 -0.257287
16 1 9.279988 5.168318 7.094678 0.515394 0.494758 0.608599
17 1 9.033498 6.032905 8.670451 0.284330 0.024273 -0.353009
18 1 10.887574 6.835151 6.323469 0.011235 -0.139093 -0.039077
19 1 11.369114 6.672467 8.016905 -0.296416 0.312167 -0.186885
20 2 11.416675 9.198400 7.685073 -3.039045 -0.946051 -0.998169
21 2 9.124315 9.104282 7.193304 0.547745 -0.684248 0.407499
Energy
-120.671072530000
PlusStress: xx yy zz yz xz xy
0.002428 0.001053 0.001133 -0.000042 0.000397 -0.000309
Feature EFS_by vasp
Feature from database:p.cfg
Feature mindist 2.70
END_CFG

BEGIN_CFG
Size
21
Supercell
16.750000 0.000000 0.000000
0.000000 16.250000 0.000000
0.000000 0.000000 15.500000
AtomData: id type cartes_x cartes_y cartes_z fx fy fz
1 0 5.899997 9.857339 8.116789 1.143945 0.207665 0.469158
2 0 6.801821 9.145929 7.091636 -0.156681 0.116908 -0.294157
3 0 7.927670 8.312551 7.709689 0.567180 0.095931 -1.349801
4 0 8.041689 6.892779 7.062098 0.098687 1.533436 0.819572
5 0 9.268550 6.144232 7.606903 -1.419488 0.132221 -0.164087
6 0 10.501761 6.978713 7.413280 1.045209 0.704101 -0.166445
7 0 10.402894 8.519497 7.417161 -0.272438 0.484797 1.417077
8 1 5.513547 9.095657 8.843310 0.128408 0.825038 -0.142808
9 1 5.080440 10.433191 7.677796 -0.257459 -0.238654 -0.225741
10 1 6.565798 10.666567 8.593416 -0.879136 -1.187765 -0.005391
11 1 7.268105 9.928970 6.470700 0.060925 -0.189447 -0.077076
12 1 6.301188 8.459000 6.385476 -0.523731 0.303388 0.162375
13 1 7.842757 8.269818 8.782216 -0.217483 -0.289600 0.865076
14 1 8.180798 7.092981 5.980996 -0.184202 -0.297777 0.065841
15 1 7.059035 6.406368 7.238479 0.438198 -0.135446 -0.128977
16 1 9.255481 5.204820 7.067439 0.616401 -0.595207 -0.212953
17 1 9.152801 5.879346 8.670908 -0.175005 0.161468 -0.012174
18 1 11.077571 6.784337 6.501289 -0.246189 -0.261392 -0.472461
19 1 11.257411 6.727567 8.169985 0.005761 0.212895 0.242251
20 2 11.401279 9.229083 7.491713 -0.684919 -0.500985 -0.546856
21 2 9.152138 9.136588 7.496727 0.905747 -1.053356 -0.240795
Energy
-120.798661900000
PlusStress: xx yy zz yz xz xy
0.000914 0.001839 0.000400 0.000021 0.000010 0.000194
Feature EFS_by vasp
Feature from database:p.cfg
Feature mindist 2.70
END_CFG

BEGIN_CFG
Size
21
Supercell
16.750000 0.000000 0.000000
0.000000 16.250000 0.000000
0.000000 0.000000 15.500000
AtomData: id type cartes_x cartes_y cartes_z fx fy fz
1 0 5.779846 9.745637 7.888303 -0.055572 0.224397 -2.013295
2 0 6.896827 9.200339 6.975766 1.255685 0.877395 0.456244
3 0 7.935893 8.288228 7.723807 -0.697595 0.047193 0.063133
4 0 8.079891 6.910344 7.022941 0.624559 1.507131 1.095275
5 0 9.227829 6.212381 7.761954 -0.189715 -0.208007 -0.299031
6 0 10.522958 6.995638 7.398959 1.485827 -0.929004 0.347679
7 0 10.473853 8.502135 7.492735 -2.676797 -0.137164 -0.104868
8 1 4.946281 9.070437 7.939772 -0.660603 -0.633121 0.248412
9 1 5.392915 10.669553 7.408603 0.015981 -0.153646 0.404171
10 1 6.132686 9.958153 8.872241 0.393274 0.318980 0.931739
11 1 7.462839 10.095255 6.635991 0.075430 -0.285944 0.100376
12 1 6.558771 8.753219 6.025117 -0.270576 -0.231241 0.323108
13 1 7.576070 8.227307 8.804483 0.363716 -0.422443 -0.970030
14 1 8.351911 7.145785 5.984264 0.003813 -0.277977 -0.194692
15 1 7.083315 6.482604 7.033157 -0.229454 -0.652041 0.099610
16 1 9.268393 5.113392 7.566067 0.383482 0.563535 -0.260172
17 1 9.024731 6.267558 8.855256 0.184484 0.151451 -0.287952
18 1 11.015720 6.710303 6.434305 -0.708215 0.149197 0.171638
19 1 11.347317 6.725669 8.094459 -0.210558 -0.047509 0.100914
20 2 11.294656 9.357045 7.303019 1.749756 -0.061124 -0.166699
21 2 9.228799 8.988962 7.845863 -0.835200 0.214340 -0.056296
Energy
-120.606610770000
PlusStress: xx yy zz yz xz xy
0.000611 0.000886 0.001215 -0.000006 -0.000011 0.000015
Feature EFS_by vasp
Feature from database:p.cfg
Feature mindist 2.70
END_CFG

BEGIN_CFG
Size
21
Supercell
16.750000 0.000000 0.000000
0.000000 16.250000 0.000000
0.000000 0.000000 15.500000
AtomData: id type cartes_x cartes_y cartes_z fx fy fz
1 0 5.638647 9.608846 7.550086 0.671362 -1.092559 1.208666
2 0 7.047293 9.351928 6.942486 -0.237609 -1.232499 -1.196169
3 0 7.924579 8.317627 7.712057 -0.507197 0.956280 1.740697
4 0 8.162437 6.928921 7.176698 -1.793462 0.244340 -1.616128
5 0 9.345698 6.195157 7.754595 -1.498895 -0.476486 0.509897
6 0 10.543807 7.014273 7.434131 0.780819 -0.297999 0.129676
7 0 10.374852 8.499124 7.653035 2.686927 3.041758 -2.925509
8 1 5.059010 8.659382 7.791155 0.647740 0.642107 -0.492097
9 1 4.998495 10.201436 6.877653 0.200907 0.268215 0.400235