BEGIN_CFG
Size
72
Supercell
22.750000 0.000000 0.000000
0.000000 23.250000 0.000000
0.000000 0.000000 16.000000
AtomData: id type cartes_x cartes_y cartes_z fx fy fz
1 0 12.380914 10.242436 13.499307 0.852635 0.523298 0.290239
2 0 13.558780 9.910133 12.563038 -0.075041 -1.688751 0.060962
3 0 13.198497 9.305009 11.203439 -0.476716 0.608327 -0.533367
4 0 12.338225 10.266758 10.346876 0.010923 0.555058 -1.508697
5 0 13.055998 11.553758 9.718285 0.086598 -0.633051 -1.024421
6 0 12.234558 12.744931 9.064631 -1.485898 -0.203083 0.995068
7 0 12.982545 14.028277 8.589096 1.480516 -0.556012 -0.228783
8 0 14.262222 13.913491 7.651578 -1.523352 -1.224702 1.162826
9 0 12.905270 13.348637 5.609389 3.021476 1.617617 -1.210929
10 0 13.323220 13.830830 4.165712 -0.601040 1.011940 0.281877
11 0 14.178923 15.148335 3.992604 -0.097728 0.293909 0.711020
12 0 14.022347 15.775246 2.611315 -1.570962 0.050967 -0.740967
13 0 12.481825 11.938397 5.654577 -0.306212 -0.426401 0.848828
14 0 11.098485 11.782056 5.048152 -0.250510 -0.504205 0.209542
15 0 10.668595 10.257680 5.139721 -1.570561 2.283636 -0.929320
16 0 9.202219 10.311009 4.595808 0.219022 0.336542 4.410360
17 0 8.475961 11.114068 7.055043 -2.015634 -2.173442 -0.504850
18 0 7.294412 12.130639 7.197818 1.363962 0.522266 -2.211435
19 0 7.761560 13.559864 6.886093 0.814528 0.501277 0.519059
20 0 6.568374 14.519488 6.693763 0.375981 -0.203144 0.191944
21 0 8.462091 9.895498 8.049106 0.107855 -0.155447 -1.165763
22 0 9.018729 10.231480 9.404101 -0.266555 -0.071933 1.174167
23 0 9.536688 8.940001 10.118836 0.240328 0.001524 -1.944133
24 0 10.817637 8.545122 9.393073 -0.049511 -0.192317 -0.978703
25 1 12.771923 10.547515 14.504329 -0.283233 -0.163898 -0.526114
26 1 11.722314 9.384930 13.644696 -0.128325 -0.277236 0.015965
27 1 11.770554 11.079773 13.123599 0.045368 -0.032310 0.034633
28 1 14.170593 9.046112 12.972831 -0.175875 1.208973 0.300416
29 1 14.191163 10.764101 12.318484 0.343016 0.285280 0.567935
30 1 14.165280 9.026320 10.722849 -0.607603 0.029949 -0.185241
31 1 12.565697 8.392228 11.323833 0.441793 0.225081 0.011072
32 1 11.500295 10.595830 10.968309 -0.294272 0.171448 0.100666
33 1 13.705645 11.208737 8.848170 -0.214801 -0.016114 1.169428
34 1 13.680181 11.893808 10.545836 0.414752 0.467293 -0.074409
35 1 11.472107 13.163055 9.815919 0.728286 -0.598349 -0.675721
36 1 11.603505 12.303383 8.248709 0.371116 0.349366 0.454020
37 1 13.393296 14.536837 9.466963 0.206916 -0.117879 0.205054
38 1 12.341154 14.781748 8.170762 -1.073333 0.210911 -0.459020
39 1 12.230689 14.087540 5.995871 -0.843230 0.337320 0.562748
40 1 12.378901 13.974840 3.593744 0.271740 -0.251205 0.072836
41 1 13.913197 13.044858 3.699751 -0.009487 -0.461356 -0.252509
42 1 13.961910 15.970237 4.727062 -0.128693 -0.773317 -0.068588
43 1 15.211212 14.835745 4.183750 0.233227 0.248125 0.034783
44 1 12.921518 15.910611 2.396363 0.624501 -0.310791 0.040709
45 1 14.437304 15.194323 1.798382 0.051704 -0.853013 -0.351496
46 1 14.407017 16.763544 2.346338 0.507182 0.410541 0.970355
47 1 12.369302 11.677054 6.756159 0.279776 -0.133972 -1.129531
48 1 13.293784 11.323413 5.230257 -0.270463 -0.143640 -0.059616
49 1 10.504841 12.537682 5.654904 -0.180152 -1.084680 -0.601667
50 1 10.925734 12.041507 3.991836 0.616781 0.346874 0.024474
51 1 10.815554 9.974789 6.171988 -0.374444 -0.683052 0.384409
52 1 11.294356 9.696271 4.468567 0.433522 -0.419449 -0.378676
53 1 9.453224 11.566015 7.014990 0.498464 0.466361 0.390315
54 1 6.713697 12.151689 8.080265 -0.426817 -0.488649 1.578962
55 1 6.599803 11.924419 6.365674 -0.058676 -0.541831 0.219237
56 1 8.519394 13.842177 7.674192 -0.581372 0.258917 -0.480664
57 1 8.312557 13.531103 5.927475 0.036965 0.005396 0.086373
58 1 5.919879 13.883282 6.074668 -0.488377 0.673165 -0.327130
59 1 6.021546 14.738895 7.623767 0.071241 -0.121260 0.086551
60 1 6.797115 15.508511 6.221116 -0.007058 -0.759486 0.076090
61 1 7.486310 9.433470 8.214583 -0.608653 0.258347 -0.467144
62 1 9.032662 9.065514 7.534975 -0.076161 0.706331 0.527052
63 1 9.847416 10.897092 9.191699 0.474271 0.460642 0.560589
64 1 8.276929 10.764328 10.074867 0.537884 -0.375425 -0.672176
65 1 8.859403 8.092534 9.873642 0.102376 0.337157 0.625050
66 1 9.732830 9.041392 11.159320 -0.154160 0.222872 1.258279
67 2 15.345753 14.053044 8.162844 1.209088 0.450816 0.151904
68 2 14.192368 13.470533 6.378127 -0.597145 0.116594 -0.394354
69 2 8.766083 10.324475 3.488894 0.069406 -0.377796 -1.326140
70 2 8.248013 10.512513 5.678557 0.264484 0.285485 -0.815596
71 2 10.899732 7.523430 8.727692 -0.010218 -0.074600 0.239048
72 2 11.798969 9.489914 9.201655 0.462575 0.235144 0.584406
Energy
-410.109271450000
PlusStress: xx yy zz yz xz xy
0.000993 0.002413 0.001647 -0.000658 -0.000574 -0.000520
Feature EFS_by vasp
Feature from database:p.cfg
Feature mindist 2.70
END_CFG

BEGIN_CFG
Size
72
Supercell
22.750000 0.000000 0.000000
0.000000 23.250000 0.000000
0.000000 0.000000 16.000000
AtomData: id type cartes_x cartes_y cartes_z fx fy fz
1 0 12.191812 10.237066 13.553603 -0.768250 -0.613529 -0.073747
2 0 13.311774 10.047401 12.572436 0.133079 0.010595 -1.657184
3 0 12.928005 9.529687 11.172912 -0.359545 -0.624352 0.442997
4 0 12.189858 10.382505 10.167630 1.722341 0.522750 -0.999347
5 0 13.100477 11.540807 9.644068 -1.437681 0.192132 1.150292
6 0 12.169408 12.567351 9.017233 1.115179 0.714317 -0.851552
7 0 12.878719 13.880375 8.583506 0.458148 1.118280 -0.158253
8 0 14.275497 13.862760 7.895192 0.228852 -0.220976 0.331693
9 0 13.141699 13.400196 5.656233 -1.265862 1.033258 -0.904211
10 0 13.449360 13.829545 4.199183 0.278782 -1.400238 -0.032281
11 0 14.184186 15.074724 3.886874 0.965476 0.886317 -0.659227
12 0 14.070152 15.450491 2.403027 1.993073 -0.345433 -1.065551
13 0 12.658022 11.938485 5.552565 -0.545512 0.462729 0.928235
14 0 11.212102 11.906506 5.020101 0.068105 -0.909973 -0.786700
15 0 10.549795 10.505713 5.203308 -0.216383 -0.472879 0.232887
16 0 9.037988 10.368660 4.761080 0.389273 1.377909 -1.208883
17 0 8.393620 10.930893 7.076511 0.452627 1.808470 -0.922956
18 0 7.622131 12.168101 7.592792 0.047656 1.969893 0.419411
19 0 7.842601 13.503200 6.756285 -1.500458 -0.703216 0.053243
20 0 6.631966 14.474746 6.924134 -0.044805 -0.973859 0.370249
21 0 8.289394 9.749813 7.948859 -1.117796 -0.778213 1.728957
22 0 8.868897 10.121375 9.377871 0.565446 0.746438 -0.850393
23 0 9.764036 9.055789 9.991313 0.888621 0.052741 0.600859
24 0 10.949288 8.582787 9.130653 0.305945 0.006286 -0.343293
25 1 12.658976 10.326131 14.519109 -0.056974 0.531189 0.891961
26 1 11.571365 9.306048 13.636550 0.335875 0.371787 -0.229009
27 1 11.478318 11.048048 13.348710 0.239133 0.210774 0.078440
28 1 13.900165 9.221280 12.926585 0.723556 -0.527753 0.594825
29 1 14.036238 10.879979 12.431889 -0.471622 0.073013 0.447814
30 1 13.836156 9.154242 10.677059 0.097042 0.209594 -0.133716
31 1 12.331547 8.609114 11.298751 -0.097764 -0.073263 0.223325
32 1 11.203445 10.806788 10.476189 0.726808 -0.291492 -0.073131
33 1 13.757618 11.182633 8.868232 0.672067 -0.460316 -0.182680
34 1 13.688686 11.956632 10.504163 -0.265169 -0.150600 -0.617518
35 1 11.408365 12.881057 9.699204 -0.709328 0.273435 0.891537
36 1 11.626701 12.058612 8.226137 -0.106185 -0.017264 -0.620649
37 1 13.052467 14.427662 9.539593 0.068647 -0.057467 -0.488052
38 1 12.274949 14.582534 7.917101 0.105645 -0.880228 0.801946
39 1 12.288215 14.040636 6.027035 0.359374 -0.521446 -0.183935
40 1 12.531120 13.856187 3.590073 -0.233826 -0.369658 0.385294
41 1 14.073980 12.980935 3.811366 -0.407609 0.387945 -0.150136
42 1 13.787355 15.937063 4.416045 0.121350 0.301083 0.701199
43 1 15.257022 14.884721 4.135968 -0.477197 0.639673 0.047527
44 1 13.208628 15.979451 2.039728 -1.208653 0.022429 0.256942
45 1 14.263965 14.591901 1.716244 -0.361542 0.050051 0.377948
46 1 14.873777 16.146077 2.072736 0.058679 -0.074054 0.507254
47 1 12.735806 11.554339 6.569384 -0.311066 -0.517764 0.291944
48 1 13.253924 11.274124 4.931343 0.608041 0.116044 -0.260644
49 1 10.621817 12.671011 5.505927 -0.466606 0.355311 0.457391
50 1 11.205343 12.170845 3.962023 0.041021 0.078779 -0.335122
51 1 10.724299 10.410561 6.300596 -0.274586 -1.064179 -0.572748
52 1 11.048464 9.669774 4.622262 -0.101096 0.923494 0.633540
53 1 9.454745 11.282586 7.032224 -0.571352 -0.213596 0.202763
54 1 7.792632 12.354381 8.711353 0.231910 -0.317730 -1.267189
55 1 6.532238 12.190231 7.547678 -0.480553 -1.274021 -0.113460
56 1 8.732792 14.092778 6.941146 0.783840 -0.287413 -0.041563
57 1 7.732834 13.113323 5.727477 0.766715 0.486835 -0.115395
58 1 5.768030 14.043907 6.382145 0.092824 0.352897 0.005559
59 1 6.314271 14.543861 7.977305 0.110852 0.085109 0.089955
60 1 6.843407 15.489535 6.583616 0.029700 0.115482 -0.266871
61 1 7.195372 9.486394 8.061117 0.773622 0.038539 -0.098866
62 1 8.776731 8.858535 7.506311 0.089592 0.277891 0.214083
63 1 9.408658 11.123696 9.306935 -0.125602 -1.058607 -0.133497
64 1 8.121538 10.363618 10.138352 -0.597679 -0.222458 -0.145133
65 1 9.194011 8.148688 10.171315 -0.259345 -0.282323 0.234172
66 1 10.147656 9.473122 10.973435 -0.516123 -0.800009 -0.708202
67 2 15.352702 14.065780 8.479612 -1.905582 -0.429442 -1.271047
68 2 14.263139 13.693186 6.505014 1.209725 -0.393323 0.512627
69 2 8.734015 10.238071 3.564737 0.432845 -0.240482 1.836137
70 2 8.025769 10.608423 5.669776 0.423512 -0.037012 0.507432
71 2 10.965953 7.506193 8.545172 -0.008554 0.871559 0.240296
72 2 12.033522 9.464514 8.989756 -1.467310 -0.068082 0.804025
Energy
-410.385855430000
PlusStress: xx yy zz yz xz xy
0.001539 0.001458 0.001960 0.000816 0.000555 0.000037
Feature EFS_by vasp
Feature from database:p.cfg
Feature mindist 2.70
END_CFG

BEGIN_CFG
Size
72
Supercell
22.750000 0.000000 0.000000
0.000000 23.250000 0.000000
0.000000 0.000000 16.000000
AtomData: id type cartes_x cartes_y cartes_z fx fy fz
1 0 11.918874 10.276998 13.442970 0.423162 0.898394 0.908303
2 0 13.166536 10.296577 12.583713 1.732248 -1.336215 -0.570829
3 0 13.025350 9.538498 11.222108 0.414405 -0.867209 0.843503
4 0 12.340638 10.400675 10.224205 -0.510882 0.282164 -1.176131
5 0 13.146238 11.587641 9.664767 -0.153042 -0.815154 -1.888772
6 0 12.203050 12.537250 8.908411 -1.079581 1.124720 0.387376
7 0 12.798512 13.925904 8.501528 0.768430 -0.740450 -0.145305
8 0 14.192124 13.802364 7.836562 -1.409640 -0.399665 0.683262
9 0 13.188262 13.466975 5.579767 0.707806 -0.061403 0.679029
10 0 13.710444 13.791482 4.187950 -0.778678 0.760903 0.116287
11 0 14.160394 15.251266 3.870357 -0.321541 -1.332218 -0.275771
12 0 14.315849 15.277978 2.375039 -0.398257 0.055445 -1.920521
13 0 12.656461 12.015041 5.642158 -0.260863 -0.173149 -1.519533
14 0 11.211074 11.892672 5.102566 -0.924369 0.199141 0.427646
15 0 10.613866 10.453020 5.159875 -1.229945 0.392756 0.626869
16 0 9.099717 10.398685 4.883712 -0.903246 1.528053 -1.741615
17 0 8.521754 11.075663 7.178322 -1.428528 -0.922574 0.964885
18 0 7.514197 12.137468 7.576367 -1.257464 0.128247 -1.019143
19 0 7.570276 13.344368 6.660839 0.409001 1.491746 0.771603
20 0 6.825078 14.597423 7.192556 -0.781672 -0.463327 -0.130087
21 0 8.286012 9.743003 7.983821 2.244779 0.784330 -1.050655
22 0 8.780386 9.844246 9.404918 -1.202069 -0.282996 1.897763
23 0 9.713320 8.714512 9.904032 0.111224 -0.364883 -1.240843
24 0 10.938120 8.586913 8.957978 0.302345 1.059095 1.456441
25 1 12.141898 10.754847 14.442447 -0.424150 -0.093640 -0.815887
26 1 11.649749 9.259183 13.684690 -0.112554 -0.731645 0.055892
27 1 11.021055 10.726987 12.981469 0.273802 0.204089 0.101614
28 1 14.056319 9.813755 13.109085 -1.074830 0.161628 -0.122568
29 1 13.631160 11.259791 12.331541 -0.593728 0.490278 0.262021
30 1 14.004775 9.162327 10.867364 0.016816 0.495685 -0.101542
31 1 12.476687 8.579639 11.350337 -0.193283 0.366260 0.180807
32 1 11.449449 10.851449 10.635555 -0.729926 0.086800 0.622092
33 1 13.950914 11.170111 8.978985 -0.660621 0.395486 0.508841
34 1 13.668901 12.195196 10.389872 0.208609 -0.021189 0.764757
35 1 11.335748 12.849129 9.587547 0.808143 -0.517783 -0.377110
36 1 11.669519 12.117966 8.023479 0.532564 -0.182185 0.584077
37 1 13.012228 14.513951 9.397845 -0.183910 0.155942 0.118791
38 1 12.031694 14.399522 7.897705 -0.128730 0.485010 -0.257798
39 1 12.539517 14.338405 5.871103 -0.140951 -1.019254 0.053223
40 1 12.882237 13.646550 3.474622 -0.318005 -0.372631 0.237142
41 1 14.446699 13.035494 3.893129 0.443122 0.171299 0.004134
42 1 13.461002 16.052256 4.186947 0.194750 -0.432353 0.316550
43 1 15.142207 15.343913 4.310965 0.477682 0.680267 0.458082
44 1 13.391634 15.179237 1.723584 0.244212 -0.130978 1.064137
45 1 14.952757 14.448199 2.029747 0.177440 0.071124 0.051187
46 1 14.732175 16.195372 1.966905 0.516047 0.467595 0.139445
47 1 12.685694 11.603588 6.648845 0.044739 0.066121 0.200088
48 1 13.372397 11.363855 5.049686 -0.562658 0.574205 0.353353
49 1 10.589572 12.583403 5.754560 0.313130 -0.541232 -0.596173
50 1 11.042615 12.242649 4.052486 0.441536 -0.001810 0.539158
51 1 10.765537 9.941211 6.108329 0.480389 0.001597 0.467330
52 1 11.021917 9.835969 4.398069 0.727095 -0.666295 -0.878874
53 1 9.556864 11.404082 7.258402 0.329801 0.159211 0.351901
54 1 7.469327 12.444619 8.591040 0.723366 0.191764 1.506288
55 1 6.473383 11.748766 7.430309 0.515562 -0.372199 0.020691
56 1 8.631982 13.645619 6.496213 -0.348806 -0.238657 -0.301593
57 1 7.075229 13.033119 5.752824 0.261699 0.145615 -0.851812
58 1 5.739555 14.352269 7.244313 0.230387 0.086086 0.105944
59 1 7.110210 14.906654 8.222596 0.176318 -0.009023 -0.476350
60 1 6.874447 15.446294 6.475295 0.269907 -0.228501 0.401047
61 1 7.263249 9.465650 8.023246 -1.259100 -0.275248 -0.554614
62 1 8.879703 8.974502 7.441582 -0.429319 -0.013309 0.164002
63 1 9.131752 10.832318 9.687311 0.928598 0.458871 -0.340420
64 1 7.880874 9.860186 10.088255 0.417430 -0.490344 -0.364044
65 1 9.225280 7.721030 9.850647 -0.105077 0.317172 -0.108783
66 1 9.943403 8.864907 10.951672 0.498905 0.243896 0.422705
67 2 15.185384 13.831013 8.523273 1.117919 0.313580 0.906220
68 2 14.338068 13.469671 6.560969 -0.316513 0.291167 -2.186131
69 2 8.585000 10.218585 3.772679 1.181534 -0.544393 0.712645
70 2 8.205699 10.881894 5.798925 0.325652 -0.779727 -0.049889
71 2 11.056783 7.714384 8.120053 0.054657 0.491683 0.056939
72 2 11.885501 9.638061 9.020944 0.196307 -0.861075 -0.465279
Energy
-410.983738470000
PlusStress: xx yy zz yz xz xy
0.001552 0.001788 0.000276 0.000040 0.000058 -0.000153
Feature EFS_by vasp
Feature from database:p.cfg
Feature mindist 2.70
END_CFG

BEGIN_CFG
Size
72
Supercell
22.750000 0.000000 0.000000
0.000000 23.250000 0.000000
0.000000 0.000000 16.000000
AtomData: id type cartes_x cartes_y cartes_z fx fy fz
1 0 11.673230 10.243898 13.336570 0.537980 -0.860860 0.218719
2 0 13.049205 10.358705 12.640076 -0.054099 0.440231 -0.954849
3 0 13.166543 9.674425 11.260561 -1.337447 0.369427 0.486588
4 0 12.215488 10.428859 10.285485 -1.360242 -0.647162 0.168362
5 0 12.779215 11.723783 9.715268 1.300072 -0.033251 1.532293
6 0 11.934113 12.794766 9.073618 0.031998 0.043661 -0.862706
7 0 12.804740 13.921753 8.447000 -0.163959 0.911982 -0.307278
8 0 14.154165 13.649132 7.817748 1.108678 -1.416823 -0.098102
9 0 13.317387 13.243893 5.451664 -0.393225 1.176733 -0.773769
10 0 13.949706 13.604898 4.086658 -0.799691 -0.384387 -0.510532
11 0 13.986615 15.118395 3.789740 1.432090 -0.168286 1.272697
12 0 14.688940 15.463353 2.465442 0.380205 -0.182528 -0.252576
13 0 12.660820 11.907752 5.399562 -0.544132 -0.851785 1.474369
14 0 11.143039 11.956179 5.171960 0.293463 -0.780590 0.751254
15 0 10.624908 10.520837 5.195890 -0.373859 -2.007645 -1.432546
16 0 9.112916 10.389863 4.867475 1.552220 1.504295 1.847158
17 0 8.456263 11.143295 7.264936 0.998379 -1.502320 -0.865684
18 0 7.452654 12.170116 7.660342 -0.001651 2.285249 1.189780
19 0 7.384989 13.538755 6.813038 -1.268812 -2.079563 -1.136460
20 0 6.875778 14.792491 7.488387 -0.698004 0.105640 -0.105530
21 0 8.420137 9.765122 8.023614 -1.322836 0.249197 0.500698
22 0 8.772666 9.654074 9.580743 0.804789 0.569635 -1.155065
23 0 9.834406 8.500021 9.754411 -0.152801 -0.523650 2.155848
24 0 11.057915 8.623535 8.883413 -1.407671 0.158854 -2.352028
25 1 11.600887 11.014668 14.091074 -0.031998 0.321306 0.610588
26 1 11.528239 9.246160 13.851505 0.195753 0.772536 -0.488122
27 1 10.803352 10.406727 12.689545 0.077009 -0.079362 -0.251276
28 1 13.860545 10.027159 13.243315 0.630856 -0.926522 1.079459
29 1 13.391643 11.394179 12.503168 -0.579922 0.463650 -0.015354
30 1 14.183154 9.538309 10.876100 0.213971 0.633999 -0.097806
31 1 12.846198 8.635301 11.411757 -0.478280 -0.155530 -0.282586
32 1 11.198685 10.644236 10.745747 0.976138 -0.421206 -0.127656
33 1 13.571704 11.357507 9.077886 0.466807 0.105402 -0.804372
34 1 13.369414 12.227721 10.542816 -0.494399 -0.405818 -0.480189
35 1 11.327989 13.330522 9.808266 -0.254322 -0.110233 0.293058
36 1 11.231929 12.433462 8.321293 -0.090365 -0.458257 -0.214087
37 1 13.097381 14.490320 9.347447 -0.064535 0.539020 -0.478367
38 1 12.212894 14.540614 7.706510 0.196349 -0.328314 0.931262
39 1 12.562153 13.970139 5.708949 -0.815855 0.703485 -0.108472
40 1 13.385655 13.148588 3.244679 -0.248674 -0.217249 0.426267
41 1 14.894346 13.018566 4.086797 0.228651 0.795133 -0.164078
42 1 12.970841 15.560238 3.850384 0.186663 -0.293190 -0.106354
43 1 14.540200 15.444834 4.718894 -0.217139 0.742851 -0.888772
44 1 14.381008 14.747373 1.697060 -0.711880 0.034532 -0.355030
45 1 15.764401 15.219486 2.445714 0.148761 0.348363 0.612225
46 1 14.574388 16.495752 2.050508 -0.131579 -0.532938 0.510987
47 1 12.878328 11.331248 6.342641 -0.266704 0.377999 -0.494655
48 1 13.071400 11.315161 4.612912 0.631669 -0.691515 -0.820882
49 1 10.650485 12.490024 5.982972 -0.031959 0.569371 0.248535
50 1 10.861875 12.447999 4.229917 0.075533 -0.027642 -0.080623
51 1 10.896812 9.823143 6.030280 0.080411 0.994474 0.083754
52 1 11.067953 9.970956 4.289389 -0.349306 0.656217 0.991159
53 1 9.509467 11.538285 7.295757 -0.721461 -0.149816 -0.003066
54 1 7.723218 12.508294 8.722139 -0.142451 -0.507399 -0.873889
55 1 6.456638 11.717415 7.771297 -0.098247 0.052678 -0.242666
56 1 8.336300 13.731065 6.312347 0.415617 -0.001550 0.103552
57 1 6.681078 13.329907 5.932123 0.756569 0.037409 0.897627
58 1 6.042675 14.648381 8.188835 0.006461 -0.424575 0.204563
59 1 7.657167 15.320787 8.029402 0.232211 0.364824 0.094763
60 1 6.404035 15.423712 6.709380 0.522830 0.244477 0.200169
61 1 7.363406 9.311916 7.896285 1.450354 0.543258 -0.126769
62 1 9.159430 9.170422 7.467411 -0.371726 -0.283137 0.097714
63 1 9.145234 10.617273 10.007459 0.267755 -0.311413 -0.469764
64 1 7.865442 9.522223 10.181532 -0.043771 -0.641881 -0.046135
65 1 9.383194 7.501842 9.599059 -0.050631 0.337007 -0.554220
66 1 10.169579 8.375226 10.826939 -0.273816 0.604943 -0.469198
67 2 15.177125 13.568458 8.505032 -0.940839 0.340715 -0.684062
68 2 14.320982 13.417288 6.448824 1.056351 -0.125462 1.161882
69 2 8.820873 10.141124 3.733167 -1.524251 -0.577214 -1.257714
70 2 8.159016 10.753012 5.811451 0.117283 0.104935 0.205191
71 2 11.068509 8.092737 7.747831 0.428648 0.116351 1.620507
72 2 11.980749 9.555923 9.116758 1.013585 0.494458 -0.197240
Energy
-410.424648590000
PlusStress: xx yy zz yz xz xy
0.001317 0.001642 0.002294 -0.000569 -0.000162 -0.000579
Feature EFS_by vasp
Feature from database:p.cfg
Feature mindist 2.70
END_CFG

BEGIN_CFG
Size
72
Supercell
22.750000 0.000000 0.000000
0.000000 23.250000 0.000000
0.000000 0.000000 16.000000
AtomData: id type cartes_x cartes_y cartes_z fx fy fz
1 0 11.532061 10.147175 13.475271 -0.568801 1.514154 0.893326
2 0 12.823631 10.461938 12.786922 1.850434 0.173115 -1.196605
3 0 12.906965 9.906899 11.301708 0.728862 -1.706816 1.677386
4 0 12.123841 10.519451 10.197832 0.409316 0.579467 -0.574203
5 0 12.770265 11.868325 9.863559 0.533418 -1.220685 0.781518
6 0 12.037212 12.680237 8.856189 -0.493129 0.534472 -1.438715
7 0 12.812177 13.878232 8.197004 -0.788443 -0.009758 1.649078
8 0 14.168644 13.510984 7.756835 -0.868027 -0.566234 -0.726980
9 0 13.342602 13.203824 5.410288 -1.473895 0.620119 0.553968
10 0 14.050599 13.614989 4.096857 0.056033 -0.455640 -0.274247
11 0 13.962565 15.118910 3.655734 -0.171790 -1.353899 0.313473
12 0 15.047522 15.599431 2.700476 0.911661 0.491565 0.218955
13 0 12.698043 11.725615 5.524056 0.639119 1.125687 -1.706563
14 0 11.192801 11.823728 5.147668 0.619438 -0.618968 0.035116
15 0 10.471723 10.471670 5.364413 -0.353077 0.617587 -0.146911
16 0 9.007314 10.459624 4.975682 -0.115718 -0.821205 -3.336548
17 0 8.389175 10.990287 7.231207 -0.890946 1.048674 0.688479
18 0 7.542201 12.172978 7.815543 -0.538361 -1.662350 -0.366658
19 0 7.429688 13.370131 6.918003 0.644429 0.411466 -0.144049
20 0 6.963618 14.516635 7.822307 0.420277 0.321999 0.126562
21 0 8.118172 9.693820 7.933175 2.987207 -0.654651 -0.240215
22 0 8.866141 9.806000 9.262046 -0.398155 0.214066 1.724679
23 0 10.000646 8.774759 9.571080 -0.735877 -0.360525 0.079293
24 0 11.206187 8.805947 8.632552 -1.140405 1.611784 1.915344
25 1 11.554748 10.439077 14.554644 0.161240 -0.347446 -0.410133
26 1 11.324556 9.099436 13.396817 -0.448115 -0.907123 0.038789
27 1 10.675164 10.756428 13.091537 0.349895 -0.497575 -0.150201
28 1 13.735350 10.013340 13.309248 -1.077530 0.259509 -0.337383
29 1 13.051246 11.545293 12.777421 -0.184414 -0.056878 0.104575
30 1 13.965429 9.846910 10.947674 -0.352887 0.124224 0.352984
31 1 12.601586 8.839592 11.439945 0.068502 0.258216 -0.340722
32 1 11.080137 10.620137 10.430148 -0.715934 0.299899 0.297086
33 1 13.863139 11.646315 9.772924 -0.584315 0.416605 -0.824118
34 1 12.741722 12.365057 10.814880 -0.008046 0.765712 0.860309
35 1 11.128693 13.110874 9.331987 0.217359 -0.101579 -0.176183
36 1 11.673117 12.026905 8.041823 0.023187 0.034693 0.131786
37 1 12.950720 14.566760 9.048834 0.004135 0.355132 -0.357665
38 1 12.225316 14.334196 7.396649 -0.258421 0.176902 0.199280
39 1 12.522415 13.973283 5.713182 0.789637 -1.116045 -0.901977
40 1 13.767479 12.976008 3.243120 -0.379284 -0.072166 0.136072
41 1 15.082479 13.264752 4.323171 0.008641 0.615292 -0.359165
42 1 12.970593 15.369249 3.211153 0.252640 -0.510051 -0.007023
43 1 13.935547 15.675779 4.586445 0.465908 0.633776 0.387945
44 1 15.110424 15.129389 1.695862 -0.413520 0.049931 0.401460
45 1 16.100920 15.646154 3.073346 -0.508233 -0.698146 0.300319
46 1 14.869277 16.663661 2.603047 -0.282866 0.637095 -0.687492
47 1 12.880127 11.391786 6.533044 -0.003786 -0.383266 0.539045
48 1 13.217415 10.983984 4.799652 -0.585320 1.057422 1.010429
49 1 10.661607 12.616811 5.708104 0.267392 0.016484 -0.104022
50 1 11.233227 12.098233 4.072303 -0.654525 -0.060638 0.241319
51 1 10.572128 10.062874 6.348806 0.221252 0.328369 1.201976
52 1 11.001710 9.695409 4.866630 0.290211 -0.747409 -1.356714
53 1 9.450134 11.154498 7.350216 0.549930 0.661030 0.026184
54 1 7.948164 12.518491 8.768928 0.149980 -0.301493 0.330208
55 1 6.492999 11.776964 8.004705 0.879878 0.281331 0.047343
56 1 8.386829 13.503703 6.348678 -0.079743 0.579674 0.800207
57 1 6.802357 13.137146 6.078940 -1.093891 -0.005616 -0.443533
58 1 5.987322 14.322662 8.310683 0.266073 -0.327139 -0.104050
59 1 7.734134 14.607306 8.628641 -0.499034 0.240142 -0.255827
60 1 6.832167 15.499973 7.362248 0.225588 0.128247 -0.348760
61 1 7.099700 9.447516 7.869857 -1.678971 -0.513433 0.519047
62 1 8.711910 8.900017 7.426987 -0.580691 0.099324 -0.421683
63 1 9.297994 10.823183 9.270621 0.037000 -0.133483 0.376865
64 1 8.190840 9.766689 10.160188 0.273271 0.051084 -0.588888
65 1 9.531581 7.797788 9.506203 -0.040730 -0.594036 -0.456749
66 1 10.230748 8.818824 10.637414 0.374661 0.367963 0.163706
67 2 15.054466 13.243794 8.530050 1.274738 0.105390 0.576456
68 2 14.370371 13.394047 6.424483 1.040721 -0.392794 -0.577726
69 2 8.649579 10.114838 3.811335 0.471087 0.926041 2.791102
70 2 8.082360 10.908430 5.859668 -0.426588 -0.294622 -1.326671
71 2 11.151513 8.251518 7.563823 0.957026 -0.469397 -0.864336
72 2 12.222258 9.675363 9.006006 -0.010239 -0.783145 -0.963448
Energy
-410.454064040000
PlusStress: xx yy zz yz xz xy
0.001185 0.000861 0.000406 0.000250 -0.000379 -0.000217
Feature EFS_by vasp
Feature from database:p.cfg
Feature mindist 2.70
END_CFG

BEGIN_CFG
Size
72
Supercell
22.750000 0.000000 0.000000
0.000000 23.250000 0.000000
0.000000 0.000000 16.000000
AtomData: id type cartes_x cartes_y cartes_z fx fy fz
1 0 11.289297 10.095406 13.535094 0.993718 -0.960223 0.123581
2 0 12.635718 10.396300 12.804242 -1.095587 0.512622 -0.013622
3 0 12.762237 9.811663 11.416652 0.493893 0.488801 -0.259678
4 0 12.079999 10.648156 10.357952 -1.948719 0.161005 -0.989343
5 0 12.739476 11.961712 9.944144 -1.673094 0.307567 1.415369
6 0 12.062385 12.540349 8.653612 0.305967 1.223391 1.279394
7 0 12.800859 13.824319 8.187251 -0.650970 -0.471952 -1.029474
8 0 14.190570 13.409155 7.612037 -0.703798 0.587938 1.735302
9 0 13.337330 13.152470 5.303756 1.117701 -0.599095 -0.024224
10 0 13.990970 13.539798 3.983488 -0.807520 -0.046871 -0.974869
11 0 13.992201 15.061846 3.758358 -0.323250 -0.121847 0.446974
12 0 15.248099 15.511497 3.060359 0.465128 1.728942 0.211104
13 0 12.730012 11.746894 5.268354 -0.757753 0.418999 2.157522
14 0 11.212428 11.779650 4.931355 0.293031 0.095587 0.270320
15 0 10.454219 10.439287 5.157012 1.485319 -1.135935 -0.151578
16 0 8.971603 10.458783 4.780152 2.198238 0.868674 3.616828
17 0 8.333214 11.063095 7.304321 2.712042 -1.018960 -2.048000
18 0 7.362686 12.041099 7.856828 -0.262726 1.037135 -0.041293
19 0 7.557290 13.500361 7.334450 0.610880 -1.903473 -1.477296
20 0 6.889010 14.626540 8.039042 0.134209 1.458806 -0.090750
21 0 8.259754 9.691681 7.946258 -2.344447 -0.376026 0.168325
22 0 8.848990 9.693864 9.361413 0.890275 -0.647581 -0.265438
23 0 10.083745 8.709152 9.526607 -1.382554 -0.906731 0.259504
24 0 11.305862 8.994411 8.718526 0.506730 0.185168 -2.117856
25 1 11.429967 10.239170 14.617456 -0.016844 -0.044884 0.011468
26 1 10.991631 9.009408 13.393096 0.144868 0.962750 0.048015
27 1 10.479657 10.754847 13.261287 -0.509390 0.232356 -0.438264
28 1 13.450739 9.998100 13.391308 0.470708 0.017710 0.477728
29 1 12.769597 11.482520 12.642753 0.108946 -0.032821 0.726922
30 1 13.814077 9.890587 11.105406 0.280952 -0.571984 0.169086
31 1 12.451742 8.762802 11.477019 -0.068081 -0.174575 -0.541648
32 1 10.979235 10.828874 10.570510 0.866310 -0.144382 0.085922
33 1 13.783380 11.722657 9.948466 1.073947 0.289222 -0.797601
34 1 12.598009 12.669725 10.818185 0.131882 -0.173419 -0.894847
35 1 11.043074 12.912348 8.937914 0.365901 -0.450759 -0.028037
36 1 11.937737 11.874432 7.796967 0.153629 -0.336794 0.328051
37 1 12.920774 14.452697 9.075077 0.411975 0.228225 -0.135813
38 1 12.052515 14.319436 7.506836 0.939116 -0.040664 0.112881
39 1 12.646426 13.924160 5.536964 -1.185969 0.771794 0.401241
40 1 13.364314 13.074842 3.184861 0.268007 0.072846 0.171746
41 1 15.006651 13.115505 3.835609 -0.286031 0.028611 0.447521
42 1 13.094430 15.400399 3.216458 -0.043777 -0.249283 -0.202803
43 1 13.842413 15.518877 4.764098 0.579943 0.204023 -0.344432
44 1 15.461039 15.043518 2.085424 -0.134751 -0.048141 0.204953
45 1 16.094576 15.422491 3.731669 0.613206 -0.839860 0.229604
46 1 15.308488 16.620353 2.949064 -0.552779 -0.277692 -0.474632
47 1 12.938963 11.210369 6.247487 -0.273359 0.461265 -0.883103
48 1 13.353100 11.305544 4.542397 0.380576 -1.524847 -1.217768
49 1 10.717615 12.585162 5.524987 0.250899 -0.218761 -0.145585
50 1 11.193326 12.116612 3.880116 -0.593575 -0.201532 -0.033440
51 1 10.630777 10.000046 6.184719 -0.246092 0.794277 -0.619638
52 1 11.007468 9.664685 4.532075 -0.868378 0.635895 0.215915
53 1 9.380841 11.462590 7.408295 -0.486038 -0.167901 -0.137951
54 1 7.438099 11.956904 8.970448 -0.203379 0.215849 -0.487899
55 1 6.401697 11.677156 7.523134 -0.941046 -0.140027 0.216942
56 1 8.632025 13.643574 7.305976 0.786965 0.399173 0.452819
57 1 7.401167 13.426238 6.217065 -0.604363 0.334537 0.771574
58 1 5.796478 14.562283 8.129351 -0.015983 -0.075482 -0.112197
59 1 7.311192 14.761404 9.039047 -0.076168 -0.215147 0.416126
60 1 7.158705 15.604184 7.544034 -0.447149 -0.669680 0.112257
61 1 7.108966 9.460062 7.920888 1.650031 0.105786 0.428572
62 1 8.686418 8.856249 7.383228 0.308090 0.297138 -0.478855
63 1 9.124021 10.725643 9.616783 -0.155059 -0.068680 0.470659
64 1 8.135223 9.241887 10.043513 -0.366722 0.432361 0.525515
65 1 9.619182 7.740779 9.165740 0.906390 0.554087 0.321052
66 1 10.312409 8.582591 10.611644 -0.082043 0.159487 -0.485613
67 2 15.077155 13.213933 8.444835 -0.020040 0.092123 -1.014813
68 2 14.402955 13.216189 6.298518 0.524639 -0.112455 0.098555
69 2 8.574034 10.207757 3.698357 -1.490887 -0.523456 -2.597519
70 2 8.104879 10.840392 5.791827 -1.056953 0.572862 0.604432
71 2 11.554793 8.510336 7.604020 -0.748700 -0.512830 0.771540
72 2 12.144145 9.993420 9.050136 -0.005020 -0.957395 1.006718
Energy
-410.563133140000
PlusStress: xx yy zz yz xz xy
0.001165 0.000758 0.001289 -0.000440 -0.000385 -0.000097
Feature EFS_by vasp
Feature from database:p.cfg
Feature mindist 2.70
END_CFG

BEGIN_CFG
Size
72
Supercell
22.750000 0.000000 0.000000
0.000000 23.250000 0.000000
0.000000 0.000000 16.000000
AtomData: id type cartes_x cartes_y cartes_z fx fy fz
1 0 11.111652 10.092558 13.507627 -2.084130 0.666384 -0.936424
2 0 12.499067 10.352389 13.100092 1.353050 -0.839643 -1.343114
3 0 12.790485 9.938182 11.584433 -0.570538 1.335060 0.412736
4 0 12.020065 10.728199 10.437464 1.083738 -0.716735 -0.301942
5 0 12.588135 12.208388 10.147283 0.172419 -3.059491 0.909598
6 0 11.960935 12.908075 8.972061 1.429448 0.457979 -1.636602
7 0 12.931342 13.871924 8.075407 -0.775698 0.027251 1.925364
8 0 14.237013 13.386536 7.517821 0.808010 -0.597641 -0.811872
9 0 13.277653 13.075576 5.186394 -0.594000 0.879046 0.994611
10 0 13.847151 13.570151 3.888793 1.215667 0.456340 -0.156268
11 0 14.224786 15.067919 3.973918 -2.395761 0.717224 -0.333538
12 0 15.477573 15.515526 3.255219 1.285566 -1.760655 0.879212
13 0 12.628253 11.735662 5.027379 0.391587 -0.963396 -0.590473
14 0 11.127642 11.749659 4.782476 -0.142120 -0.188884 -1.106060