BEGIN_CFG
Size
54
Supercell
20.500000 0.000000 0.000000
0.000000 19.750000 0.000000
0.000000 0.000000 16.750000
AtomData: id type cartes_x cartes_y cartes_z fx fy fz
1 0 8.906155 9.266371 4.334474 1.202485 1.190019 0.124327
2 0 9.141701 9.175737 5.81552 0.157423 -1.404742 0.25622
3 0 10.480851 8.492836 6.113237 -0.488373 0.281976 0.595666
4 0 11.67499 9.382588 5.879237 1.645185 -0.797048 -0.627593
5 0 12.93037 8.810222 6.668428 0.348155 0.440342 0.120757
6 0 13.887468 9.957229 7.225906 -2.077823 -2.346221 -0.124669
7 0 13.115737 9.518486 9.579739 -0.254011 0.202953 1.254091
8 0 14.166836 9.365953 10.749975 -0.258355 0.729286 -0.979112
9 0 11.776331 10.149661 10.118857 0.59664 -0.342937 -1.336235
10 0 11.204737 9.321012 11.258231 -0.145914 -1.494451 0.084748
11 0 9.666753 9.445884 11.32188 0.094076 -0.151247 1.353162
12 0 8.90603 8.757503 10.186893 0.635873 2.981507 1.407767
13 0 7.024174 10.288674 10.681682 0.238641 0.302481 -0.002862
14 0 5.592851 9.847134 10.85593 -1.059064 0.299611 -0.328765
15 0 7.360142 11.557473 9.85036 -0.268017 0.288836 -0.954137
16 0 6.550928 11.775511 8.529779 0.25304 0.447708 -1.139704
17 0 6.938126 10.935848 7.226259 1.88465 -0.988058 1.794112
18 0 8.267218 11.394075 6.546058 0.087615 1.590187 1.154887
19 1 8.756099 8.324164 3.852095 -0.25136 -0.921417 -0.221495
20 1 8.132429 9.95778 4.078669 -1.008865 0.489846 -0.246415
21 1 9.830851 9.710965 3.935429 -0.037462 -0.016115 -0.380806
22 1 8.367884 8.595563 6.326443 -0.427716 -0.205979 0.053865
23 1 10.550764 7.599102 5.493928 0.033098 -0.507012 0.146821
24 1 10.464732 8.268781 7.184302 -0.110515 -0.549617 0.099171
25 1 11.475124 10.403711 6.191512 0.005583 0.266657 0.06434
26 1 11.872467 9.361891 4.787885 0.316255 0.42112 0.29214
27 1 12.503488 8.151027 7.444534 0.182384 0.392799 0.228774
28 1 13.591394 8.112524 6.120017 -0.26118 0.385797 -0.453155
29 1 12.987242 8.487039 9.185834 -0.440976 0.38226 0.178565
30 1 13.814078 8.596727 11.453873 0.072697 -0.030065 -0.153374
31 1 15.111914 9.044384 10.27756 0.006813 0.086061 0.389874
32 1 14.30414 10.313755 11.329039 0.038043 -0.433157 -0.485358
33 1 11.108212 10.217614 9.222781 0.012256 -0.357462 0.535803
34 1 11.895809 11.213122 10.397226 0.447498 -0.172028 0.128891
35 1 11.667349 9.585309 12.242224 -0.374819 0.097353 -0.484106
36 1 11.508578 8.232131 11.102766 -0.503979 0.94075 0.079149
37 1 9.483892 10.54944 11.422092 -0.377873 -0.790509 -0.052676
38 1 9.230046 8.90674 12.228314 0.58203 0.795203 -0.382414
39 1 7.462931 10.398561 11.672318 0.231354 0.098472 0.304144
40 1 4.932057 10.637509 11.27236 0.319845 -0.07284 -0.159745
41 1 5.19048 9.565874 9.856402 -0.012302 0.001483 0.474745
42 1 5.503438 8.979548 11.542342 0.22378 0.20922 -0.322599
43 1 8.460158 11.508711 9.566761 -0.94078 0.223563 0.492354
44 1 7.165228 12.494348 10.432088 0.322512 -0.642915 0.054618
45 1 5.457468 11.695192 8.671645 0.148815 -0.477869 0.226385
46 1 6.617311 12.850727 8.210535 0.401435 -0.536314 0.296685
47 1 7.053021 9.835296 7.484284 -0.310405 0.982426 -0.221246
48 1 6.149921 11.046182 6.539821 -1.288692 0.151148 -1.194556
49 2 9.470845 7.998078 9.460398 0.106423 -1.902478 -1.500536
50 2 7.626402 9.158431 10.011096 -0.009509 -1.113495 -0.767112
51 2 14.726481 10.468137 6.527431 0.308218 0.687476 0.253277
52 2 13.592084 10.358109 8.507929 1.118168 0.871929 0.138964
53 2 8.514191 12.605564 6.363443 -0.172532 -2.698823 0.053424
54 2 9.284342 10.421698 6.454621 -0.934645 2.738382 -0.119482
Energy
-312.44036831
PlusStress: xx yy zz yz xz xy
0.001238 0.002023 0.001762 -0.00021 -0.00015 -0.000209
Feature name configurations\LAC7_poly.cfg
Feature EFS_by vasp
Feature from database:p.cfg
Feature mindist 2.70
END_CFG

BEGIN_CFG
Size
54
Supercell
21.750000 0.000000 0.000000
0.000000 15.500000 0.000000
0.000000 0.000000 21.250000
AtomData: id type cartes_x cartes_y cartes_z fx fy fz
1 0 11.104266 11.935844 9.904771 -0.555685 -0.578274 0.147997
2 0 10.930372 10.651999 10.723134 -0.75754 1.231017 -0.097381
3 0 12.136186 10.366823 11.590322 -0.60976 -1.704508 1.291221
4 0 13.549211 10.227752 11.026499 0.210023 -1.288154 -0.698943
5 0 13.855761 8.938021 10.135815 -2.787658 0.047342 0.461401
6 0 13.831328 7.68494 10.960123 1.457714 -0.909643 -0.989851
7 0 13.989455 5.956785 9.017968 0.066815 2.018739 -1.077605
8 0 15.294928 5.20341 9.049263 1.007304 0.084282 -0.882837
9 0 12.831451 5.184115 8.429652 0.429038 -0.660844 -0.893751
10 0 11.598583 6.048768 8.190793 -1.114207 0.089666 0.775199
11 0 10.304001 5.403831 8.694864 -1.143141 -0.627242 0.446797
12 0 9.214309 6.446104 8.998153 0.27143 2.053712 -1.862525
13 0 8.378678 5.300292 11.023044 0.204104 -0.797817 -0.680853
14 0 6.948332 4.75303 11.174671 0.305259 -0.25848 1.272744
15 0 8.942325 6.008136 12.233651 -2.048627 0.402168 1.887239
16 0 8.254632 7.440621 12.498529 0.552638 -0.833906 -1.455988
17 0 9.274148 8.44192 11.916968 0.693513 1.104212 1.171031
18 0 9.020508 9.961385 12.256095 0.865483 -1.791465 -1.837304
19 1 11.819748 11.719647 9.108249 0.503038 0.24043 -0.016639
20 1 10.150012 12.028997 9.370574 -0.090793 0.691967 0.098136
21 1 11.378933 12.821893 10.523756 -0.200877 -0.426598 -0.452749
22 1 10.643614 9.889555 9.987638 -0.071042 -0.429138 0.330891
23 1 11.934824 9.440598 12.231141 0.242921 0.72946 -0.744642
24 1 12.092917 11.145788 12.343581 0.369396 0.635883 0.329389
25 1 14.23961 10.222512 11.892404 -0.083934 -0.087879 -0.317338
26 1 13.848785 11.025602 10.36634 -0.038357 0.940501 -0.179499
27 1 13.067817 8.723336 9.349019 0.602021 0.80782 0.31588
28 1 14.788217 9.069722 9.637322 1.059276 -0.016096 -0.512518
29 1 14.096459 6.901038 8.416082 0.083254 -0.595173 -0.11623
30 1 15.578237 5.044832 10.076318 0.42107 0.016615 0.637523
31 1 15.236324 4.210158 8.595893 -0.231889 -0.202446 -0.152008
32 1 16.113079 5.735388 8.483653 -0.547254 -0.279382 0.64479
33 1 12.660342 4.245924 9.007586 -0.211443 0.515185 0.154113
34 1 13.198745 4.768363 7.442098 -0.207014 0.451109 0.631898
35 1 11.424516 6.241151 7.141123 0.274937 0.310218 -0.570807
36 1 11.583224 7.044419 8.69978 0.693999 -0.461629 -0.277384
37 1 10.485337 4.754775 9.580657 0.078643 0.333692 -0.28872
38 1 9.839531 4.720178 7.935335 0.301408 0.270845 0.290586
39 1 9.032126 4.437486 10.665724 -0.492748 0.979281 0.413324
40 1 6.487003 5.119428 12.118463 0.043787 0.027134 -0.427496
41 1 6.304155 5.012624 10.34353 -0.15025 0.119283 -0.388151
42 1 6.987256 3.654116 11.276578 -0.069127 0.127402 -0.117831
43 1 10.000216 6.179751 12.206565 0.909028 -0.194951 -0.262332
44 1 8.721141 5.429979 13.172836 0.297589 -0.077208 -0.737438
45 1 7.341252 7.525361 11.875912 0.134459 -0.060469 0.245374
46 1 7.919959 7.519455 13.527487 0.387653 0.420726 0.434475
47 1 10.310089 8.234331 12.348078 -0.898575 0.005458 -0.673652
48 1 9.232208 8.238064 10.840215 0.524979 0.400631 -0.084165
49 2 9.098317 7.496871 8.316588 0.640717 -1.62643 0.666451
50 2 8.319215 6.330716 9.973844 -0.238181 -0.948069 0.339878
51 2 14.048295 7.699522 12.146401 -0.457144 -0.402725 0.805952
52 2 13.6717 6.426756 10.332186 -0.598059 0.175757 1.931188
53 2 8.169578 10.228709 13.043684 -1.580903 1.08144 1.676295
54 2 9.688911 10.97613 11.61033 1.523162 -1.02351 -0.594444
Energy
-312.26014585
PlusStress: xx yy zz yz xz xy
0.001079 0.002279 0.00065 0.00059 0.000124 -0.000201
Feature name configurations\LAC7_poly.cfg
Feature EFS_by vasp
Feature from database:p.cfg
Feature mindist 2.70
END_CFG

BEGIN_CFG
Size
18
Supercell
17.500000 0.000000 0.000000
0.000000 15.500000 0.000000
0.000000 0.000000 14.500000
AtomData: id type cartes_x cartes_y cartes_z fx fy fz
1 0 10.887342 8.631727 6.333017 -0.1238 0.209274 1.723227
2 0 9.646269 8.004521 7.064499 0.712586 -0.045177 0.107264
3 0 9.39637 8.100777 8.656876 3.430378 0.49143 -1.931203
4 0 8.048134 8.547435 9.041913 -1.538707 -0.20604 0.577901
5 0 6.975792 8.075738 8.063015 0.770186 -0.362828 -1.407118
6 0 7.30928 8.251686 6.526333 0.347153 0.146564 2.290481
7 1 10.735314 9.749462 6.272793 0.403182 -0.891493 0.143184
8 1 11.842427 8.342124 6.836247 -0.416019 0.414621 -0.1293
9 1 10.925558 8.218873 5.328638 -0.113323 -0.040121 -0.362149
10 1 9.683426 6.924269 6.862313 -0.129207 -0.181823 -0.247582
11 1 9.751641 7.107925 9.006128 -0.653379 0.247466 0.270524
12 1 10.214569 8.792944 8.971326 -0.509783 -0.088168 0.342163
13 1 7.78448 8.112075 10.030355 0.074688 0.317922 -0.134221
14 1 7.896683 9.637585 9.133724 0.580844 -0.056347 0.016566
15 1 6.059131 8.572046 8.311868 -0.929955 0.393699 -0.235681
16 1 6.772603 7.009285 8.148122 -0.033253 -0.505807 0.205881
17 2 6.512956 8.141042 5.636835 -0.790885 0.082873 -0.772148
18 2 8.612749 8.574268 6.267942 -1.070719 0.077543 -0.479145
Energy
-104.04933373
PlusStress: xx yy zz yz xz xy
-0.000313 0.000803 0.001427 -0.000344 -0.000823 -3.1e-05
Feature name configurations\LAC7_mono.cfg
Feature EFS_by vasp
Feature from database:p.cfg
Feature mindist 2.70
END_CFG

BEGIN_CFG
Size
90
Supercell
23.250000 0.000000 0.000000
0.000000 20.500000 0.000000
0.000000 0.000000 19.250000
AtomData: id type cartes_x cartes_y cartes_z fx fy fz
1 0 11.785701 8.204456 5.417103 -0.327409 -2.069587 -0.757806
2 0 11.456924 7.555088 6.737881 -0.252291 0.136373 0.87407
3 0 12.672071 7.618578 7.702278 -0.337161 -0.605386 0.157943
4 0 13.6343 6.437714 7.352697 0.638393 0.055826 -1.646155
5 0 14.126748 5.434489 8.421629 -1.28914 1.037282 0.200342
6 0 14.74877 6.121666 9.622209 0.779944 -2.075089 -0.283574
7 0 15.287237 5.520138 11.967775 -0.137915 0.78091 0.289809
8 0 15.32713 4.186966 12.704734 -1.40697 -0.618741 -0.437923
9 0 14.392182 6.628833 12.549362 -0.621597 -0.409897 1.325053
10 0 15.122321 7.306094 13.747723 0.962896 0.738523 -0.127806
11 0 14.44512 8.488178 14.516254 -1.511863 -0.973719 -1.973434
12 0 14.641403 9.82284 13.823366 0.310327 2.123793 1.303269
13 0 14.674711 10.881546 11.611944 -0.742607 -0.386673 -0.400907
14 0 15.664822 10.471287 10.542272 0.745856 -0.545986 1.022191
15 0 13.281951 11.045435 11.011473 -1.52606 -0.305115 -0.400924
16 0 12.156986 11.602957 11.921704 -0.263444 0.49191 -0.258885
17 0 12.51693 13.114636 12.176679 -0.458815 -1.156777 2.705943
18 0 11.490221 13.993743 11.586468 1.925795 0.120359 -1.236424
19 0 10.967113 15.140742 9.57883 1.959139 0.96576 -0.08996
20 0 11.562184 16.574073 9.492933 -1.516345 0.095479 -0.771127
21 0 10.9255 14.372246 8.268734 -0.427972 -1.320317 0.504557
22 0 9.794572 14.725158 7.34401 -1.462605 0.419109 -0.118959
23 0 8.339183 14.305848 7.82818 1.083981 -0.981022 0.055269
24 0 7.664108 13.215856 6.951279 -0.031146 1.296091 -0.578774
25 0 5.693062 11.711965 7.053071 1.29569 0.975775 -0.834146
26 0 4.283412 11.978215 7.527578 -0.226768 1.32352 0.361127
27 0 6.287806 10.40936 7.474831 -2.182151 -0.33271 1.827727
28 0 7.605022 9.971935 6.930639 0.667299 -0.56046 -0.068414
29 0 8.62417 9.826155 8.097854 -0.800497 -1.207228 -0.719945
30 0 9.984208 9.476825 7.565714 2.809932 0.415661 -0.309113
31 1 10.921496 8.291626 4.764927 -0.370797 0.112543 -0.195265
32 1 12.157562 9.132966 5.679146 0.772228 2.343497 0.081321
33 1 12.569686 7.665797 4.824838 -0.38307 0.011931 0.578606
34 1 11.159359 6.479941 6.682911 -0.058969 0.616071 -0.139405
35 1 12.256514 7.451791 8.69936 0.021949 0.109452 0.407807
36 1 13.214206 8.605856 7.70064 -0.573198 -0.766084 -0.080044
37 1 14.449924 6.934749 6.773207 0.254732 -0.444402 0.688694
38 1 13.22756 5.794232 6.527631 -0.316142 0.312291 0.494216
39 1 13.26966 4.827811 8.793806 0.213513 0.213328 -0.147833
40 1 14.827388 4.697027 8.016262 0.257068 0.075792 -0.129089
41 1 16.276669 6.006184 11.890318 0.201828 -0.41301 -0.171026
42 1 15.520542 4.095421 13.767396 0.411183 0.84677 0.481228
43 1 16.026027 3.54865 12.204711 0.798407 -0.59573 -0.412786
44 1 14.351259 3.636205 12.611061 0.319665 0.589408 -0.212776
45 1 14.254526 7.406702 11.765658 -0.324546 -0.450749 0.491742
46 1 13.417985 6.157845 12.921096 0.72799 0.647465 -0.635537
47 1 15.935787 7.90276 13.268245 0.455555 -1.092346 0.227209
48 1 15.536939 6.579868 14.51535 -0.360407 0.522384 -0.888679
49 1 13.342656 8.239281 14.50066 0.619736 0.562685 0.57757
50 1 14.863324 8.561803 15.483936 0.140036 0.11588 1.411867
51 1 14.946641 11.714623 12.244277 0.419566 0.505313 0.170644
52 1 16.533568 10.053812 11.104206 0.092839 0.5225 -0.544171
53 1 15.265393 9.591921 10.040513 -0.180808 -0.088273 -0.484649
54 1 15.95378 11.248275 9.824812 -0.037436 0.061573 0.15232
55 1 13.238981 11.668089 10.085313 0.623025 0.049916 0.480602
56 1 12.994082 10.071306 10.59723 -0.052261 -0.396084 0.147888
57 1 11.119808 11.573917 11.483582 0.873971 -0.098318 -0.443016
58 1 11.938596 11.040456 12.84963 0.784389 0.127438 0.071125
59 1 13.534575 13.318582 11.867379 0.190103 0.26444 -0.529893
60 1 12.534545 13.271917 13.283852 -0.157312 0.063527 -0.460126
61 1 10.054523 15.244094 10.171121 -0.363082 -0.569662 -0.274392
62 1 11.347828 17.190352 10.401576 -0.127131 -0.318783 -0.623407
63 1 12.623323 16.586452 9.342831 0.956513 -0.295018 -0.128856
64 1 11.119605 17.014242 8.549453 0.201138 0.184144 0.954015
65 1 10.895215 13.273486 8.559166 -0.270626 0.809085 -0.33946
66 1 11.879318 14.433744 7.732945 0.249365 0.376753 0.02015
67 1 9.85114 15.818421 7.091501 -0.303066 -0.550337 0.230567
68 1 9.90166 14.214384 6.395277 0.313975 -0.2503 -0.56795
69 1 7.648642 15.151118 7.800779 -0.173434 0.170356 0.234739
70 1 8.336344 13.839168 8.85491 0.071737 0.766164 -0.527609
71 1 5.726024 11.800714 5.948777 0.152275 0.041678 0.155702
72 1 4.268003 12.485917 8.576849 -0.102972 -0.606913 -1.760989
73 1 3.768139 11.02283 7.599618 -0.333324 -0.260924 0.112312
74 1 3.775729 12.570402 6.694501 0.223334 -0.261904 1.391125
75 1 5.475022 9.727619 7.231557 -0.112738 -0.79247 -0.349186
76 1 6.18257 10.412344 8.614271 0.674294 -0.092733 -0.873983
77 1 7.50872 9.040592 6.347395 0.025146 -0.142721 0.343695
78 1 7.96012 10.683953 6.200358 0.327288 0.561414 -0.267382
79 1 8.593168 10.801809 8.602581 0.429061 -0.34325 0.38103
80 1 8.229583 8.946985 8.698051 0.512357 1.066552 -0.054497
81 2 7.92677 12.923607 5.794713 0.489814 -0.040544 -0.079427
82 2 6.588365 12.77114 7.603034 -0.96052 -0.289235 0.864409
83 2 14.831123 10.92933 14.375115 -0.364197 -1.566991 -0.071176
84 2 14.625162 9.69891 12.509715 -0.51157 -0.392466 -1.446561
85 2 15.261991 7.216115 9.613486 0.029841 0.702215 0.493373
86 2 14.827998 5.163688 10.622077 -0.291059 0.664419 0.033692
87 2 10.43244 14.351139 12.02516 -1.578803 0.156184 1.194956
88 2 11.94271 14.353612 10.34926 -0.671293 0.378743 0.224358
89 2 10.925306 10.26506 7.333757 -1.531285 -0.240778 0.458443
90 2 10.1662 8.140964 7.367505 0.045592 -0.606689 -0.321488
Energy
-521.90856559
PlusStress: xx yy zz yz xz xy
0.001409 0.001978 0.001408 -0.000233 -2.2e-05 0.000278
Feature name configurations\LAC7_poly.cfg
Feature EFS_by vasp
Feature from database:p.cfg
Feature mindist 2.70
END_CFG

BEGIN_CFG
Size
54
Supercell
21.500000 0.000000 0.000000
0.000000 15.250000 0.000000
0.000000 0.000000 21.250000
AtomData: id type cartes_x cartes_y cartes_z fx fy fz
1 0 8.651789 3.257713 11.268653 0.404946 0.515743 0.891067
2 0 9.349914 4.626377 11.319947 0.800114 -0.9109 -0.414841
3 0 9.410974 5.288403 9.898281 -0.073214 0.091208 0.824274
4 0 10.515547 4.676118 8.990754 0.77133 1.483101 0.091995
5 0 11.259802 5.793234 8.080216 -1.910572 -1.133777 0.737377
6 0 10.194054 6.344181 7.148969 1.540809 1.427085 0.948395
7 0 11.376844 8.536795 7.224697 -0.591009 0.057956 0.351
8 0 11.422251 9.485923 6.06695 -0.830772 0.770364 0.534062
9 0 11.17665 9.331229 8.581283 0.113853 -1.682853 -1.022512
10 0 12.254401 10.365023 8.84046 -0.477346 0.132593 0.072057
11 0 12.199382 10.735643 10.338875 -0.456578 -0.422868 -0.669127
12 0 12.985366 9.78264 11.222536 1.348788 1.173153 1.813121
13 0 11.529094 10.102741 13.227405 0.718798 -0.907483 0.650118
14 0 11.695665 10.572034 14.703847 -0.718293 0.254256 -0.633038
15 0 10.798845 8.759389 13.087315 0.108557 -0.280545 0.447041
16 0 11.34665 7.495136 13.799734 0.88181 0.717272 -0.570692
17 0 10.794575 6.198623 13.176636 -0.647357 1.239161 0.208634
18 0 9.275864 6.228328 13.154169 -2.533437 1.137528 1.24325
19 1 9.268787 2.603453 10.673494 0.049892 -0.463243 -0.78496
20 1 8.676761 2.803899 12.265144 -0.134946 0.027194 0.277823
21 1 7.603782 3.298899 10.953275 0.053599 0.083044 -0.29749
22 1 10.416191 4.446846 11.719924 -1.345669 0.158276 -0.619795
23 1 9.677741 6.356831 10.049882 -0.403648 -0.14959 -0.010928
24 1 8.363361 5.203601 9.489608 0.930242 0.296881 -0.025499
25 1 10.05743 3.994103 8.286626 0.113372 -0.642603 -0.132437
26 1 11.291045 4.20963 9.646072 -0.341938 -0.067268 -0.507885
27 1 11.689016 6.596394 8.663679 0.454005 0.001472 0.439597
28 1 11.985033 5.303319 7.441549 0.645542 -0.194284 -0.086143
29 1 12.277342 7.923079 7.281714 0.332157 -0.080878 -0.037956
30 1 11.579282 8.963738 5.128682 0.263884 -0.0186 -0.317057
31 1 10.418679 10.015415 6.019072 0.996996 -0.289219 -0.046787
32 1 12.212401 10.175551 6.34102 0.356633 0.651518 -0.701961
33 1 11.149308 8.648932 9.465261 -0.295527 0.0634 -0.553389
34 1 10.23047 9.830666 8.432864 -0.790998 0.192675 0.4182
35 1 12.00175 11.244912 8.230024 0.257008 0.173045 0.135595
36 1 13.219997 9.980883 8.485956 0.282629 0.143126 0.425163
37 1 11.134396 10.764424 10.655539 0.26923 -0.026555 -0.142116
38 1 12.544192 11.765729 10.467814 0.435687 0.081657 0.405304
39 1 10.966369 10.783718 12.595264 -0.333286 0.705989 0.230776
40 1 11.970038 11.646665 14.721513 0.142254 -0.373526 0.098681
41 1 10.705379 10.488243 15.231136 0.657603 -0.048032 -0.347872
42 1 12.448171 9.96536 15.245777 -0.211864 0.201589 -0.25644
43 1 10.753794 8.515548 12.029435 -0.005177 -0.014494 -0.686622
44 1 9.773691 8.941814 13.379336 -0.662014 0.017129 0.233194
45 1 12.443256 7.590483 13.636414 -0.181509 -0.584832 0.183064
46 1 11.181433 7.532561 14.87722 -0.204015 -0.022334 0.202423
47 1 11.227518 5.988319 12.192827 0.013697 0.342663 -0.083052
48 1 10.970288 5.307271 13.756014 0.646034 -0.585472 0.711673
49 2 13.9258 9.09417 10.873129 -0.627646 -0.095385 -0.404582
50 2 12.879119 10.005037 12.637165 -0.543045 -0.483529 -1.0301
51 2 9.31322 5.656292 6.73524 -1.694278 -0.811853 -1.138881
52 2 10.253341 7.684554 6.815165 -0.26531 -0.686576 0.736628
53 2 8.51821 6.868322 13.93512 2.244711 -1.063332 -1.330985
54 2 8.613324 5.438331 12.268264 0.423788 -0.10456 -0.462121
Energy
-312.82317293
PlusStress: xx yy zz yz xz xy
0.001419 0.000937 0.001784 -6.1e-05 -0.000324 -0.000296
Feature name configurations\LAC7_poly.cfg
Feature EFS_by vasp
Feature from database:p.cfg
Feature mindist 2.70
END_CFG

BEGIN_CFG
Size
72
Supercell
20.500000 0.000000 0.000000
0.000000 21.500000 0.000000
0.000000 0.000000 18.750000
AtomData: id type cartes_x cartes_y cartes_z fx fy fz
1 0 12.383561 7.391923 6.131016 -0.543543 -0.57139 -2.63237
2 0 12.00621 8.317192 7.209268 -0.258145 0.094045 0.849297
3 0 12.05227 9.765879 6.839259 0.677379 0.433117 -0.148417
4 0 13.494426 10.158282 6.440664 -1.072796 0.567289 -1.433237
5 0 13.640905 11.649944 6.597172 -0.164875 0.903468 0.243777
6 0 13.548417 12.116168 8.048483 0.041917 0.460834 -0.272476
7 0 13.072799 14.111583 9.384085 1.932067 -0.324614 -0.574187
8 0 14.109069 15.254148 9.557327 -0.55715 0.642255 -1.397305
9 0 11.64576 14.495317 9.460978 -1.328543 -0.04033 -0.604412
10 0 11.3349 14.485123 10.915159 -1.73288 -0.49836 1.561821
11 0 9.853215 14.857263 11.308585 0.519501 2.085577 -1.682867
12 0 8.9023 13.724786 11.18964 -0.338281 1.789513 -0.498392
13 0 6.690585 13.206155 10.1623 0.688124 0.001856 0.189411
14 0 5.513344 14.105673 9.829425 -0.376145 -2.565671 -0.759752
15 0 7.362827 12.299945 9.036737 -1.031296 0.284659 0.828233
16 0 6.468384 11.126943 8.546046 0.826641 -0.493643 1.897315
17 0 6.295789 10.018314 9.648753 0.790702 -0.511025 -1.337902
18 0 7.471241 9.035601 9.547753 0.84978 0.717347 0.108131
19 0 8.821175 7.487456 10.820965 0.67995 0.798685 -0.564178
20 0 8.173967 6.190965 11.255823 1.741685 0.059931 -0.788519
21 0 9.971441 7.854862 11.738224 -0.111385 0.004426 1.241872
22 0 10.857938 9.082033 11.480327 0.247677 -0.962393 -2.043772
23 0 11.343996 9.075652 9.971095 -0.632948 1.228991 0.954705
24 0 12.553735 8.231323 9.694175 -1.821537 1.493679 -2.648151
25 1 11.698814 7.621016 5.221856 1.13044 -0.151888 0.976708
26 1 12.1028 6.379902 6.378182 0.001992 -0.726239 0.351043
27 1 13.44666 7.363102 5.812429 -0.368958 0.345973 0.156151
28 1 10.970596 8.089984 7.446951 -0.468688 -0.251909 0.576036
29 1 11.738171 10.320014 7.742339 -0.078671 0.161528 -0.446986
30 1 11.358182 9.978575 5.980141 0.285063 -0.107887 0.69422
31 1 13.578361 9.92949 5.346766 0.305002 0.00021 0.566457
32 1 14.239998 9.597735 6.97834 0.405707 -0.286959 0.447962
33 1 14.562893 12.096606 6.199705 0.314101 -0.224837 -0.059759
34 1 12.849754 12.179379 6.023171 0.093783 -0.132473 0.210605
35 1 13.252534 13.303765 10.108549 0.111506 0.11333 0.1959
36 1 13.863899 15.97482 10.34407 -0.144344 -0.325314 0.515024
37 1 14.061493 15.927096 8.648207 0.129901 -0.71126 0.394958
38 1 15.151859 14.927171 9.672334 -0.170291 -0.204124 0.05012
39 1 11.033694 13.672477 8.994851 0.365239 0.583812 0.064739
40 1 11.34786 15.450806 8.952274 0.44182 -0.458091 0.236205
41 1 12.046016 15.029275 11.52787 0.160689 0.909106 0.03806
42 1 11.524909 13.46303 11.300919 -0.356226 -0.009786 -0.149374
43 1 9.420549 15.713826 10.6671 0.865055 -0.828325 0.817237
44 1 9.887951 15.222382 12.328186 -0.260113 0.071556 0.598002
45 1 6.395774 12.602405 11.05372 0.335805 -0.041085 -0.358757
46 1 5.664275 14.639306 8.924557 0.208543 0.519177 -1.293861
47 1 5.279163 14.833482 10.563717 -0.221833 0.514342 1.263981
48 1 4.687204 13.369702 9.697215 -0.195536 0.74065 -0.053456
49 1 7.630244 12.918025 8.177322 -0.0924 0.392218 -0.178328
50 1 8.319068 12.00679 9.500817 -0.188399 -0.504823 -0.221437
51 1 6.896599 10.651775 7.667499 0.009594 -0.028999 -0.375559
52 1 5.500621 11.516452 8.351194 -1.169391 0.487052 -0.639763
53 1 6.313152 10.432289 10.637347 -0.019833 0.344487 0.839114
54 1 5.368286 9.411286 9.589122 0.111769 0.288708 -0.313288
55 1 9.23265 7.302954 9.801726 -0.426689 0.466804 0.252238
56 1 8.970721 5.444549 10.9731 -0.587315 0.164848 0.799673
57 1 7.946021 6.219921 12.307354 -0.326787 -0.390301 0.609544
58 1 7.367742 5.93273 10.61123 -1.254284 -0.151706 -0.376549
59 1 9.595394 7.900199 12.780427 -0.170195 0.168998 -0.074773
60 1 10.540807 6.930631 11.757529 0.809183 -0.289007 -0.058646
61 1 11.777951 9.048522 12.08569 -0.374604 0.137093 0.25076
62 1 10.294904 10.011188 11.587381 -0.04236 0.148293 0.412253
63 1 11.592982 10.142669 9.749734 0.234772 -0.545488 -0.082617
64 1 10.485003 8.863009 9.335332 -0.09459 -0.151327 -0.348878
65 2 9.252729 12.646437 11.586489 -1.04888 -2.046921 0.108012
66 2 7.698737 14.166732 10.585653 1.753298 -0.855245 0.792725
67 2 13.685516 11.414598 9.036541 -0.01268 -0.070835 0.101146
68 2 13.303413 13.463099 8.085674 0.22914 0.13613 -0.402469
69 2 8.106319 8.767329 8.528268 -0.779464 -0.065889 0.001895
70 2 7.878934 8.634792 10.779634 -0.391139 -1.049545 -0.037033
71 2 13.239762 7.8383 10.571587 2.136165 -1.427218 1.541385
72 2 12.90366 8.027536 8.333705 -0.181963 -0.292647 1.106991
Energy
-417.86124083
PlusStress: xx yy zz yz xz xy
0.001077 0.000648 0.000718 0.000222 0.000117 -0.000299
Feature name configurations\LAC7_poly.cfg
Feature EFS_by vasp
Feature from database:p.cfg
Feature mindist 2.70
END_CFG

BEGIN_CFG
Size
54
Supercell
20.500000 0.000000 0.000000
0.000000 19.750000 0.000000
0.000000 0.000000 16.750000
AtomData: id type cartes_x cartes_y cartes_z fx fy fz
1 0 8.894482 8.993103 3.862988 -0.580806 0.10752 0.749085
2 0 8.792523 9.435818 5.323107 0.302917 -0.936964 1.094091
3 0 10.145016 9.169864 6.118109 -0.538289 0.591308 -0.276081
4 0 10.381551 7.705059 6.574567 -0.351779 0.084558 0.36259
5 0 11.455134 7.658103 7.734229 -0.784578 1.007477 -0.185817
6 0 12.798096 8.040582 7.24679 2.127803 0.962914 -1.87958
7 0 13.49953 9.026445 9.359025 0.27307 -0.71981 1.239951
8 0 14.904341 9.007207 9.949149 -0.668646 -1.039234 1.55814
9 0 12.720166 10.231072 9.855315 -0.116417 0.180939 -0.618806
10 0 12.159488 10.105532 11.288418 -0.384794 0.007895 0.215709
11 0 10.833425 10.85658 11.393348 -0.974438 0.304618 -1.108517
12 0 9.710638 9.904153 10.847012 -0.812303 1.439538 0.401131
13 0 8.137318 11.783442 10.600094 -0.675305 0.242931 0.259582
14 0 7.164548 11.777677 11.808312 0.069665 0.123298 -0.238997
15 0 7.480457 12.368958 9.303246 1.321555 -0.385574 0.726205
16 0 6.549141 11.368596 8.621811 0.60974 1.327919 -1.677884
17 0 7.215086 10.538392 7.496058 0.675641 1.983491 0.020986
18 0 7.505201 11.41272 6.234522 0.847237 -2.533526 -0.01651
19 1 9.347738 8.011517 3.780388 0.253143 -0.462328 0.087941
20 1 7.898748 8.928842 3.413177 -0.070218 0.182782 -0.198343
21 1 9.520258 9.700483 3.332818 0.190162 0.339295 -0.367421
22 1 8.032188 8.823003 5.918534 0.445609 0.677324 -0.915381
23 1 10.135777 9.821762 6.994973 -0.319463 0.034071 0.519733
24 1 11.004523 9.590825 5.585799 0.1617 -0.257934 -0.540513
25 1 10.706124 7.060675 5.728915 0.037937 0.264125 0.319373
26 1 9.386943 7.284422 6.923285 0.92438 0.269281 0.010457
27 1 11.2641 8.419769 8.511923 -0.740233 -0.39716 -0.03928
28 1 11.521305 6.705485 8.23701 -0.16876 -0.726605 0.194438
29 1 12.952562 8.170028 9.85112 0.387499 0.001249 -0.979961
30 1 14.706035 9.110652 11.056811 0.617092 0.218601 -0.678829
31 1 15.447422 8.059569 9.858748 -0.280519 -0.364001 -0.254196
32 1 15.598825 9.73453 9.584984 0.220406 1.111433 -0.297435
33 1 11.912739 10.365981 9.098105 0.073316 0.221172 0.462831
34 1 13.410636 11.087329 9.768469 -0.353989 0.290062 0.056927
35 1 12.868601 10.521475 12.000014 0.290389 0.1285 0.285513
36 1 11.917072 9.070556 11.618289 0.486137 0.158735 -0.399933
37 1 10.92603 11.79539 10.776645 -0.326161 -0.508779 0.60225
38 1 10.444768 11.116947 12.407119 0.611304 -0.008606 -0.232033
39 1 9.026978 12.370519 10.888048 -0.082973 -0.144365 -0.231393
40 1 6.280313 11.176898 11.599081 -0.303476 -0.179007 -0.276987
41 1 7.603073 11.313983 12.700915 0.313241 0.069319 0.002433
42 1 6.807007 12.778525 12.085401 0.156102 0.144616 -0.088003
43 1 8.224655 12.706586 8.543878 0.043259 -0.19939 0.482763
44 1 7.044033 13.309362 9.67432 -0.569277 -0.110779 -0.305348
45 1 6.126648 10.694348 9.321098 -0.901242 -0.654106 0.808398
46 1 5.826991 11.995882 8.079867 -0.607429 -0.312527 0.300811
47 1 8.15171 10.082323 7.833014 -0.139931 -0.31935 0.015997
48 1 6.498647 9.818212 7.155145 -0.442034 -0.984506 -0.194254
49 2 9.811286 8.711106 10.930297 0.403305 -1.546425 -0.247568
50 2 8.477164 10.374469 10.405563 1.301204 0.566394 0.053678
51 2 13.286314 7.761627 6.1618 -0.745546 -0.740228 -0.258081
52 2 13.59035 8.964526 7.922136 -0.740944 -0.533965 1.014513
53 2 6.990618 12.448716 5.941346 -0.666597 1.627227 0.120681
54 2 8.369165 10.856023 5.282897 0.183268 -0.605935 0.510238
Energy
-312.81271602
PlusStress: xx yy zz yz xz xy
0.001364 0.00052 0.001929 -0.000459 -7.2e-05 0.000359
Feature name configurations\LAC7_poly.cfg
Feature EFS_by vasp
Feature from database:p.cfg
Feature mindist 2.70
END_CFG

BEGIN_CFG
Size
90
Supercell
22.500000 0.000000 0.000000
0.000000 25.500000 0.000000
0.000000 0.000000 17.750000
AtomData: id type cartes_x cartes_y cartes_z fx fy fz
1 0 10.12952 9.054914 4.263882 0.76319 0.221161 -1.111068
2 0 9.122433 9.08989 5.367535 -0.549478 1.170786 0.531284
3 0 9.765612 9.186786 6.765758 0.992308 0.515307 -0.989857
4 0 10.137572 7.781572 7.139036 -1.032269 -0.876096 -0.252174
5 0 11.286361 7.594938 8.037232 1.179836 -0.224631 1.93091
6 0 12.707113 8.023934 7.62096 0.585554 -0.219289 -1.401681
7 0 14.877245 8.573985 8.56332 0.174274 -1.063267 -0.70069
8 0 15.542466 7.901966 9.721484 0.634684 0.295329 1.194317
9 0 15.093362 10.069698 8.503771 0.743243 -0.896047 -0.280241
10 0 14.247575 10.716765 9.547664 -1.054728 2.233078 -0.653108
11 0 14.717953 12.20537 9.734961 0.330154 -1.534873 -0.159741
12 0 16.020726 12.272985 10.524589 -0.014214 -0.302948 0.541509
13 0 15.934339 14.739381 10.60954 -0.43088 0.011625 -1.178962
14 0 16.188936 14.831727 9.086769 0.227403 -0.124854 0.361898
15 0 14.563385 15.245719 11.072695 -0.955948 -1.040968 0.155833
16 0 14.372089 15.268676 12.58269 -1.613491 -0.451507 0.330607
17 0 12.884447 15.58516 12.972113 -0.01286 0.47034 0.828562
18 0 11.850712 14.435505 12.872681 2.842483 -0.296989 -0.384973
19 0 9.82655 15.940493 13.008778 0.117036 0.000554 -0.156132
20 0 10.22352 16.828951 14.162303 -0.200118 0.917136 -0.189895
21 0 9.908809 16.572935 11.657345 0.980565 -0.060002 -1.468222
22 0 8.827746 17.470679 11.090398 -1.476235 -0.279404 0.652238
23 0 7.880937 16.757476 10.120664 -2.012616 0.19758 -1.076162
24 0 8.467031 16.106492 8.855915 1.482201 -1.393831 2.184647
25 0 8.219271 15.739292 6.524677 0.869482 0.423961 0.094341
26 0 7.739375 16.813915 5.534226 -0.522303 -1.513147 -0.713667
27 0 7.837486 14.228835 6.317749 0.690547 0.60821 0.932741
28 0 7.469182 13.873214 4.903668 2.248464 0.208438 -2.007375
29 0 7.278091 12.376078 4.640057 -1.495142 -0.872292 0.190105
30 0 8.452983 11.54471 5.033363 1.757194 -1.200656 1.734458
31 1 9.653721 8.90919 3.283573 -0.238312 -0.00516 -0.03225
32 1 10.747182 9.992089 4.157587 -0.376926 -0.797692 0.473056
33 1 10.776902 8.16532 4.391134 0.120539 0.38972 0.082075
34 1 8.422314 8.20958 5.275882 0.654613 0.445259 0.364399
35 1 9.060595 9.598619 7.467803 -0.578165 0.236609 0.482955
36 1 10.660822 9.884466 6.805063 -0.777688 -0.582413 -0.477068
37 1 10.260091 7.149422 6.254523 0.198764 -0.019419 -0.358504
38 1 9.224968 7.365837 7.613331 0.293557 -0.223002 0.121348
39 1 11.157641 8.168102 8.951173 -0.322863 0.740374 0.445899
40 1 11.231034 6.596768 8.548307 0.666363 0.071554 -0.839868
41 1 15.219312 8.042925 7.663587 -0.262155 0.318022 -0.354857
42 1 16.647017 8.028723 9.649509 -0.445595 0.424279 0.235574
43 1 15.442984 6.82184 9.827097 -0.586179 -0.345353 -0.407117
44 1 15.120305 8.3531 10.642144 0.641868 -0.189845 0.059533
45 1 16.143913 10.305649 8.712912 0.195952 -0.284327 0.131522
46 1 14.955709 10.396239 7.469375 -0.585472 0.372398 -0.117383
47 1 14.166127 10.133016 10.435848 0.693864 -0.281032 1.261476